  42  42   0   0
  0.9142096E+01  0.5581912E-09  0.5629563E-09  0.1416630E-08  0.5000000E-15
  1.000000000000000E-004
  CAR 
 unknown system                          
     19.62028837    -16.96045416  301      4.27161849      1.00000000
    -16.960  0.0000E+00  0.0000E+00  0.0000E+00  0.0000E+00
    -16.839  0.0000E+00  0.0000E+00  0.0000E+00  0.0000E+00
    -16.717  0.0000E+00  0.0000E+00  0.0000E+00  0.0000E+00
    -16.595  0.0000E+00  0.0000E+00  0.0000E+00  0.0000E+00
    -16.473  0.0000E+00  0.0000E+00  0.0000E+00  0.0000E+00
    -16.351  0.0000E+00  0.0000E+00  0.0000E+00  0.0000E+00
    -16.229  0.0000E+00  0.0000E+00  0.0000E+00  0.0000E+00
    -16.107  0.0000E+00  0.0000E+00  0.0000E+00  0.0000E+00
    -15.985  0.0000E+00  0.0000E+00  0.0000E+00  0.0000E+00
    -15.863  0.0000E+00  0.0000E+00  0.0000E+00  0.0000E+00
    -15.741  0.0000E+00  0.0000E+00  0.0000E+00  0.0000E+00
    -15.619  0.0000E+00  0.0000E+00  0.0000E+00  0.0000E+00
    -15.497  0.0000E+00  0.0000E+00  0.0000E+00  0.0000E+00
    -15.375  0.6496E-09  0.2941E-07  0.7921E-10  0.3587E-08
    -15.253  0.4438E-03  0.6630E-03  0.5412E-04  0.8085E-04
    -15.131  0.5494E-02  0.6500E-02  0.7240E-03  0.8735E-03
    -15.009  0.5537E-02  0.5764E-02  0.1399E-02  0.1576E-02
    -14.888  0.1065E-01  0.1070E-01  0.2698E-02  0.2880E-02
    -14.766  0.3943E-02  0.3158E-02  0.3179E-02  0.3266E-02
    -14.644  0.1257E-01  0.1522E-01  0.4711E-02  0.5121E-02
    -14.522  0.8008E-02  0.5951E-02  0.5688E-02  0.5847E-02
    -14.400  0.5092E-02  0.4584E-02  0.6309E-02  0.6406E-02
    -14.278  0.9887E-02  0.1279E-01  0.7514E-02  0.7965E-02
    -14.156  0.1328E-01  0.1199E-01  0.9133E-02  0.9427E-02
    -14.034  0.7773E-02  0.6856E-02  0.1008E-01  0.1026E-01
    -13.912  0.1492E-01  0.1999E-01  0.1190E-01  0.1270E-01
    -13.790  0.1765E-01  0.1491E-01  0.1405E-01  0.1452E-01
    -13.668  0.1495E-01  0.1801E-01  0.1588E-01  0.1671E-01
    -13.546  0.3042E-01  0.2884E-01  0.1958E-01  0.2023E-01
    -13.424  0.4205E-01  0.4647E-01  0.2471E-01  0.2590E-01
    -13.302  0.9089E-01  0.9402E-01  0.3579E-01  0.3736E-01
    -13.180  0.7281E-01  0.6408E-01  0.4467E-01  0.4517E-01
    -13.059  0.2693E-01  0.2314E-01  0.4796E-01  0.4800E-01
    -12.937  0.3635E-03  0.3604E-04  0.4800E-01  0.4800E-01
    -12.815  0.0000E+00  0.0000E+00  0.4800E-01  0.4800E-01
    -12.693  0.0000E+00  0.0000E+00  0.4800E-01  0.4800E-01
    -12.571  0.0000E+00  0.0000E+00  0.4800E-01  0.4800E-01
    -12.449  0.0000E+00  0.0000E+00  0.4800E-01  0.4800E-01
    -12.327  0.0000E+00  0.0000E+00  0.4800E-01  0.4800E-01
    -12.205  0.0000E+00  0.0000E+00  0.4800E-01  0.4800E-01
    -12.083  0.0000E+00  0.0000E+00  0.4800E-01  0.4800E-01
    -11.961  0.0000E+00  0.0000E+00  0.4800E-01  0.4800E-01
    -11.839  0.0000E+00  0.0000E+00  0.4800E-01  0.4800E-01
    -11.717  0.0000E+00  0.0000E+00  0.4800E-01  0.4800E-01
    -11.595  0.0000E+00  0.0000E+00  0.4800E-01  0.4800E-01
    -11.473  0.0000E+00  0.0000E+00  0.4800E-01  0.4800E-01
    -11.351  0.0000E+00  0.0000E+00  0.4800E-01  0.4800E-01
    -11.229  0.0000E+00  0.0000E+00  0.4800E-01  0.4800E-01
    -11.108  0.0000E+00  0.0000E+00  0.4800E-01  0.4800E-01
    -10.986  0.0000E+00  0.0000E+00  0.4800E-01  0.4800E-01
    -10.864  0.0000E+00  0.0000E+00  0.4800E-01  0.4800E-01
    -10.742  0.0000E+00  0.0000E+00  0.4800E-01  0.4800E-01
    -10.620  0.0000E+00  0.0000E+00  0.4800E-01  0.4800E-01
    -10.498  0.0000E+00  0.0000E+00  0.4800E-01  0.4800E-01
    -10.376  0.0000E+00  0.0000E+00  0.4800E-01  0.4800E-01
    -10.254  0.0000E+00  0.0000E+00  0.4800E-01  0.4800E-01
    -10.132  0.0000E+00  0.0000E+00  0.4800E-01  0.4800E-01
    -10.010  0.0000E+00  0.0000E+00  0.4800E-01  0.4800E-01
     -9.888  0.0000E+00  0.0000E+00  0.4800E-01  0.4800E-01
     -9.766  0.0000E+00  0.0000E+00  0.4800E-01  0.4800E-01
     -9.644  0.0000E+00  0.0000E+00  0.4800E-01  0.4800E-01
     -9.522  0.0000E+00  0.0000E+00  0.4800E-01  0.4800E-01
     -9.400  0.0000E+00  0.0000E+00  0.4800E-01  0.4800E-01
     -9.278  0.0000E+00  0.0000E+00  0.4800E-01  0.4800E-01
     -9.157  0.0000E+00  0.0000E+00  0.4800E-01  0.4800E-01
     -9.035  0.0000E+00  0.0000E+00  0.4800E-01  0.4800E-01
     -8.913  0.0000E+00  0.0000E+00  0.4800E-01  0.4800E-01
     -8.791  0.0000E+00  0.0000E+00  0.4800E-01  0.4800E-01
     -8.669  0.0000E+00  0.0000E+00  0.4800E-01  0.4800E-01
     -8.547  0.0000E+00  0.0000E+00  0.4800E-01  0.4800E-01
     -8.425  0.0000E+00  0.0000E+00  0.4800E-01  0.4800E-01
     -8.303  0.0000E+00  0.0000E+00  0.4800E-01  0.4800E-01
     -8.181  0.0000E+00  0.0000E+00  0.4800E-01  0.4800E-01
     -8.059  0.0000E+00  0.0000E+00  0.4800E-01  0.4800E-01
     -7.937  0.0000E+00  0.0000E+00  0.4800E-01  0.4800E-01
     -7.815  0.0000E+00  0.0000E+00  0.4800E-01  0.4800E-01
     -7.693  0.0000E+00  0.0000E+00  0.4800E-01  0.4800E-01
     -7.571  0.0000E+00  0.0000E+00  0.4800E-01  0.4800E-01
     -7.449  0.0000E+00  0.0000E+00  0.4800E-01  0.4800E-01
     -7.328  0.0000E+00  0.0000E+00  0.4800E-01  0.4800E-01
     -7.206  0.0000E+00  0.0000E+00  0.4800E-01  0.4800E-01
     -7.084  0.0000E+00  0.0000E+00  0.4800E-01  0.4800E-01
     -6.962  0.0000E+00  0.0000E+00  0.4800E-01  0.4800E-01
     -6.840  0.0000E+00  0.0000E+00  0.4800E-01  0.4800E-01
     -6.718  0.0000E+00  0.0000E+00  0.4800E-01  0.4800E-01
     -6.596  0.0000E+00  0.0000E+00  0.4800E-01  0.4800E-01
     -6.474  0.0000E+00  0.0000E+00  0.4800E-01  0.4800E-01
     -6.352  0.0000E+00  0.0000E+00  0.4800E-01  0.4800E-01
     -6.230  0.0000E+00  0.0000E+00  0.4800E-01  0.4800E-01
     -6.108  0.0000E+00  0.0000E+00  0.4800E-01  0.4800E-01
     -5.986  0.0000E+00  0.0000E+00  0.4800E-01  0.4800E-01
     -5.864  0.0000E+00  0.0000E+00  0.4800E-01  0.4800E-01
     -5.742  0.0000E+00  0.0000E+00  0.4800E-01  0.4800E-01
     -5.620  0.0000E+00  0.0000E+00  0.4800E-01  0.4800E-01
     -5.498  0.0000E+00  0.0000E+00  0.4800E-01  0.4800E-01
     -5.377  0.0000E+00  0.0000E+00  0.4800E-01  0.4800E-01
     -5.255  0.0000E+00  0.0000E+00  0.4800E-01  0.4800E-01
     -5.133  0.0000E+00  0.0000E+00  0.4800E-01  0.4800E-01
     -5.011  0.0000E+00  0.0000E+00  0.4800E-01  0.4800E-01
     -4.889  0.0000E+00  0.0000E+00  0.4800E-01  0.4800E-01
     -4.767  0.0000E+00  0.0000E+00  0.4800E-01  0.4800E-01
     -4.645  0.0000E+00  0.0000E+00  0.4800E-01  0.4800E-01
     -4.523  0.0000E+00  0.0000E+00  0.4800E-01  0.4800E-01
     -4.401  0.0000E+00  0.0000E+00  0.4800E-01  0.4800E-01
     -4.279  0.0000E+00  0.0000E+00  0.4800E-01  0.4800E-01
     -4.157  0.0000E+00  0.0000E+00  0.4800E-01  0.4800E-01
     -4.035  0.0000E+00  0.0000E+00  0.4800E-01  0.4800E-01
     -3.913  0.0000E+00  0.0000E+00  0.4800E-01  0.4800E-01
     -3.791  0.0000E+00  0.0000E+00  0.4800E-01  0.4800E-01
     -3.669  0.0000E+00  0.0000E+00  0.4800E-01  0.4800E-01
     -3.548  0.0000E+00  0.0000E+00  0.4800E-01  0.4800E-01
     -3.426  0.0000E+00  0.0000E+00  0.4800E-01  0.4800E-01
     -3.304  0.0000E+00  0.0000E+00  0.4800E-01  0.4800E-01
     -3.182  0.7840E-18  0.0000E+00  0.4800E-01  0.4800E-01
     -3.060  0.7641E-05  0.6323E-19  0.4800E-01  0.4800E-01
     -2.938  0.4487E-03  0.3390E-05  0.4806E-01  0.4800E-01
     -2.816  0.2846E-02  0.4521E-03  0.4840E-01  0.4806E-01
     -2.694  0.2605E-02  0.2656E-02  0.4872E-01  0.4838E-01
     -2.572  0.1306E-01  0.3342E-02  0.5031E-01  0.4879E-01
     -2.450  0.1365E-01  0.1228E-01  0.5198E-01  0.5028E-01
     -2.328  0.1781E-01  0.1151E-01  0.5415E-01  0.5169E-01
     -2.206  0.2760E-01  0.1128E-01  0.5751E-01  0.5306E-01
     -2.084  0.2581E-01  0.1796E-01  0.6066E-01  0.5525E-01
     -1.962  0.3957E-01  0.1416E-01  0.6549E-01  0.5698E-01
     -1.840  0.2562E-01  0.2286E-01  0.6861E-01  0.5977E-01
     -1.718  0.2218E-01  0.2648E-01  0.7132E-01  0.6300E-01
     -1.597  0.2484E-01  0.1885E-01  0.7435E-01  0.6530E-01
     -1.475  0.3537E-01  0.1928E-01  0.7866E-01  0.6765E-01
     -1.353  0.5033E-01  0.2704E-01  0.8480E-01  0.7094E-01
     -1.231  0.3584E-01  0.3930E-01  0.8917E-01  0.7574E-01
     -1.109  0.3476E-01  0.3485E-01  0.9340E-01  0.7998E-01
     -0.987  0.3261E-01  0.2748E-01  0.9738E-01  0.8334E-01
     -0.865  0.4079E-01  0.3663E-01  0.1024E+00  0.8780E-01
     -0.743  0.4066E-01  0.3252E-01  0.1073E+00  0.9177E-01
     -0.621  0.2944E-01  0.3082E-01  0.1109E+00  0.9553E-01
     -0.499  0.2450E-01  0.2681E-01  0.1139E+00  0.9879E-01
     -0.377  0.2254E-01  0.3617E-01  0.1166E+00  0.1032E+00
     -0.255  0.2061E-01  0.3168E-01  0.1192E+00  0.1071E+00
     -0.133  0.3213E-01  0.3250E-01  0.1231E+00  0.1110E+00
     -0.011  0.3631E-01  0.3171E-01  0.1275E+00  0.1149E+00
      0.111  0.2599E-01  0.4518E-01  0.1307E+00  0.1204E+00
      0.232  0.3095E-01  0.3895E-01  0.1344E+00  0.1252E+00
      0.354  0.3825E-01  0.3039E-01  0.1391E+00  0.1289E+00
      0.476  0.2878E-01  0.3806E-01  0.1426E+00  0.1335E+00
      0.598  0.2286E-01  0.3511E-01  0.1454E+00  0.1378E+00
      0.720  0.3206E-01  0.3555E-01  0.1493E+00  0.1421E+00
      0.842  0.2547E-01  0.3187E-01  0.1524E+00  0.1460E+00
      0.964  0.2491E-01  0.3550E-01  0.1555E+00  0.1503E+00
      1.086  0.3268E-01  0.2863E-01  0.1594E+00  0.1538E+00
      1.208  0.3524E-01  0.3586E-01  0.1637E+00  0.1582E+00
      1.330  0.3162E-01  0.3297E-01  0.1676E+00  0.1622E+00
      1.452  0.3498E-01  0.2018E-01  0.1719E+00  0.1647E+00
      1.574  0.3401E-01  0.2306E-01  0.1760E+00  0.1675E+00
      1.696  0.3297E-01  0.2200E-01  0.1800E+00  0.1702E+00
      1.818  0.3675E-01  0.2391E-01  0.1845E+00  0.1731E+00
      1.940  0.3318E-01  0.2975E-01  0.1885E+00  0.1767E+00
      2.062  0.3461E-01  0.1648E-01  0.1928E+00  0.1787E+00
      2.183  0.4118E-01  0.1711E-01  0.1978E+00  0.1808E+00
      2.305  0.4080E-01  0.1862E-01  0.2028E+00  0.1831E+00
      2.427  0.2170E-01  0.1330E-01  0.2054E+00  0.1847E+00
      2.549  0.2750E-01  0.2502E-01  0.2088E+00  0.1878E+00
      2.671  0.3324E-01  0.5384E-01  0.2128E+00  0.1943E+00
      2.793  0.3350E-01  0.4820E-01  0.2169E+00  0.2002E+00
      2.915  0.4813E-01  0.2764E-01  0.2228E+00  0.2036E+00
      3.037  0.4071E-01  0.4445E-01  0.2277E+00  0.2090E+00
      3.159  0.3636E-01  0.4861E-01  0.2322E+00  0.2149E+00
      3.281  0.3282E-01  0.5114E-01  0.2362E+00  0.2212E+00
      3.403  0.4331E-01  0.5300E-01  0.2415E+00  0.2276E+00
      3.525  0.4025E-01  0.5353E-01  0.2464E+00  0.2341E+00
      3.647  0.3839E-01  0.5013E-01  0.2510E+00  0.2403E+00
      3.769  0.3845E-01  0.4322E-01  0.2557E+00  0.2455E+00
      3.891  0.3649E-01  0.3342E-01  0.2602E+00  0.2496E+00
      4.013  0.2249E-01  0.1807E-01  0.2629E+00  0.2518E+00
      4.134  0.8719E-02  0.1628E-02  0.2640E+00  0.2520E+00
      4.256  0.1401E-03  0.1297E-07  0.2640E+00  0.2520E+00
      4.378  0.0000E+00  0.0000E+00  0.2640E+00  0.2520E+00
      4.500  0.0000E+00  0.0000E+00  0.2640E+00  0.2520E+00
      4.622  0.0000E+00  0.1603E-10  0.2640E+00  0.2520E+00
      4.744  0.0000E+00  0.5693E-03  0.2640E+00  0.2521E+00
      4.866  0.0000E+00  0.1193E-01  0.2640E+00  0.2535E+00
      4.988  0.3187E-09  0.1553E-01  0.2640E+00  0.2554E+00
      5.110  0.6701E-03  0.1084E-01  0.2641E+00  0.2567E+00
      5.232  0.6170E-02  0.1488E-01  0.2648E+00  0.2586E+00
      5.354  0.1457E-01  0.3065E-01  0.2666E+00  0.2623E+00
      5.476  0.2320E-01  0.1402E-01  0.2694E+00  0.2640E+00
      5.598  0.3166E-01  0.2215E-06  0.2733E+00  0.2640E+00
      5.720  0.2817E-01  0.0000E+00  0.2767E+00  0.2640E+00
      5.842  0.3363E-01  0.1444E-13  0.2808E+00  0.2640E+00
      5.963  0.2891E-01  0.1535E-03  0.2844E+00  0.2640E+00
      6.085  0.1963E-01  0.7844E-02  0.2868E+00  0.2650E+00
      6.207  0.8273E-02  0.2002E-01  0.2878E+00  0.2674E+00
      6.329  0.1723E-02  0.3332E-01  0.2880E+00  0.2715E+00
      6.451  0.3018E-02  0.3784E-01  0.2883E+00  0.2761E+00
      6.573  0.1345E-01  0.4645E-01  0.2900E+00  0.2818E+00
      6.695  0.1708E-01  0.4733E-01  0.2921E+00  0.2875E+00
      6.817  0.2903E-01  0.4563E-01  0.2956E+00  0.2931E+00
      6.939  0.3837E-01  0.4571E-01  0.3003E+00  0.2987E+00
      7.061  0.3131E-01  0.3055E-01  0.3041E+00  0.3024E+00
      7.183  0.3702E-01  0.3923E-01  0.3086E+00  0.3072E+00
      7.305  0.2135E-01  0.2838E-01  0.3112E+00  0.3106E+00
      7.427  0.6134E-02  0.9883E-02  0.3120E+00  0.3118E+00
      7.549  0.2842E-03  0.1299E-02  0.3120E+00  0.3120E+00
      7.671  0.0000E+00  0.2289E-07  0.3120E+00  0.3120E+00
      7.793  0.0000E+00  0.0000E+00  0.3120E+00  0.3120E+00
      7.914  0.0000E+00  0.0000E+00  0.3120E+00  0.3120E+00
      8.036  0.0000E+00  0.0000E+00  0.3120E+00  0.3120E+00
      8.158  0.0000E+00  0.0000E+00  0.3120E+00  0.3120E+00
      8.280  0.0000E+00  0.0000E+00  0.3120E+00  0.3120E+00
      8.402  0.0000E+00  0.0000E+00  0.3120E+00  0.3120E+00
      8.524  0.0000E+00  0.0000E+00  0.3120E+00  0.3120E+00
      8.646  0.0000E+00  0.0000E+00  0.3120E+00  0.3120E+00
      8.768  0.0000E+00  0.0000E+00  0.3120E+00  0.3120E+00
      8.890  0.0000E+00  0.0000E+00  0.3120E+00  0.3120E+00
      9.012  0.0000E+00  0.0000E+00  0.3120E+00  0.3120E+00
      9.134  0.0000E+00  0.0000E+00  0.3120E+00  0.3120E+00
      9.256  0.0000E+00  0.0000E+00  0.3120E+00  0.3120E+00
      9.378  0.0000E+00  0.0000E+00  0.3120E+00  0.3120E+00
      9.500  0.0000E+00  0.0000E+00  0.3120E+00  0.3120E+00
      9.622  0.0000E+00  0.0000E+00  0.3120E+00  0.3120E+00
      9.743  0.0000E+00  0.0000E+00  0.3120E+00  0.3120E+00
      9.865  0.0000E+00  0.0000E+00  0.3120E+00  0.3120E+00
      9.987  0.0000E+00  0.0000E+00  0.3120E+00  0.3120E+00
     10.109  0.0000E+00  0.0000E+00  0.3120E+00  0.3120E+00
     10.231  0.0000E+00  0.0000E+00  0.3120E+00  0.3120E+00
     10.353  0.0000E+00  0.0000E+00  0.3120E+00  0.3120E+00
     10.475  0.0000E+00  0.0000E+00  0.3120E+00  0.3120E+00
     10.597  0.0000E+00  0.0000E+00  0.3120E+00  0.3120E+00
     10.719  0.0000E+00  0.0000E+00  0.3120E+00  0.3120E+00
     10.841  0.0000E+00  0.0000E+00  0.3120E+00  0.3120E+00
     10.963  0.0000E+00  0.0000E+00  0.3120E+00  0.3120E+00
     11.085  0.0000E+00  0.0000E+00  0.3120E+00  0.3120E+00
     11.207  0.1821E-08  0.2069E-13  0.3120E+00  0.3120E+00
     11.329  0.2105E-03  0.6037E-04  0.3120E+00  0.3120E+00
     11.451  0.1728E-04  0.1674E-03  0.3120E+00  0.3120E+00
     11.573  0.2580E-03  0.3921E-05  0.3121E+00  0.3120E+00
     11.694  0.1564E-02  0.1807E-02  0.3122E+00  0.3122E+00
     11.816  0.2365E-04  0.1205E-04  0.3123E+00  0.3123E+00
     11.938  0.2640E-02  0.1855E-02  0.3126E+00  0.3125E+00
     12.060  0.7470E-04  0.8783E-03  0.3126E+00  0.3126E+00
     12.182  0.1360E-02  0.1285E-02  0.3127E+00  0.3127E+00
     12.304  0.1413E-03  0.8512E-04  0.3128E+00  0.3128E+00
     12.426  0.4261E-02  0.3586E-02  0.3133E+00  0.3132E+00
     12.548  0.1619E-02  0.1877E-02  0.3135E+00  0.3134E+00
     12.670  0.3365E-02  0.2343E-02  0.3139E+00  0.3137E+00
     12.792  0.6402E-03  0.2214E-02  0.3140E+00  0.3140E+00
     12.914  0.1401E-02  0.5465E-03  0.3141E+00  0.3140E+00
     13.036  0.4390E-02  0.3999E-02  0.3147E+00  0.3145E+00
     13.158  0.4444E-02  0.4882E-02  0.3152E+00  0.3151E+00
     13.280  0.5057E-02  0.5699E-02  0.3158E+00  0.3158E+00
     13.402  0.3836E-02  0.2474E-02  0.3163E+00  0.3161E+00
     13.523  0.1292E-02  0.2488E-02  0.3165E+00  0.3164E+00
     13.645  0.1003E-01  0.8486E-02  0.3177E+00  0.3175E+00
     13.767  0.8535E-02  0.8339E-02  0.3187E+00  0.3185E+00
     13.889  0.6391E-02  0.6728E-02  0.3195E+00  0.3193E+00
     14.011  0.7857E-02  0.7303E-02  0.3205E+00  0.3202E+00
     14.133  0.1023E-01  0.9546E-02  0.3217E+00  0.3213E+00
     14.255  0.1382E-01  0.1216E-01  0.3234E+00  0.3228E+00
     14.377  0.1265E-01  0.1390E-01  0.3249E+00  0.3245E+00
     14.499  0.1219E-01  0.1246E-01  0.3264E+00  0.3260E+00
     14.621  0.1226E-01  0.1244E-01  0.3279E+00  0.3276E+00
     14.743  0.8142E-02  0.9756E-02  0.3289E+00  0.3288E+00
     14.865  0.1099E-01  0.9060E-02  0.3303E+00  0.3299E+00
     14.987  0.8960E-02  0.8731E-02  0.3313E+00  0.3309E+00
     15.109  0.9040E-02  0.1026E-01  0.3324E+00  0.3322E+00
     15.231  0.1006E-01  0.7821E-02  0.3337E+00  0.3331E+00
     15.353  0.1062E-01  0.1172E-01  0.3350E+00  0.3346E+00
     15.474  0.7248E-02  0.9015E-02  0.3359E+00  0.3357E+00
     15.596  0.7968E-02  0.7263E-02  0.3368E+00  0.3365E+00
     15.718  0.1018E-01  0.9480E-02  0.3381E+00  0.3377E+00
     15.840  0.7757E-02  0.7575E-02  0.3390E+00  0.3386E+00
     15.962  0.6970E-02  0.7946E-02  0.3399E+00  0.3396E+00
     16.084  0.9823E-02  0.8124E-02  0.3411E+00  0.3406E+00
     16.206  0.7395E-02  0.8771E-02  0.3420E+00  0.3416E+00
     16.328  0.7067E-02  0.6243E-02  0.3428E+00  0.3424E+00
     16.450  0.1012E-01  0.9206E-02  0.3441E+00  0.3435E+00
     16.572  0.9958E-02  0.9653E-02  0.3453E+00  0.3447E+00
     16.694  0.1101E-01  0.1185E-01  0.3466E+00  0.3462E+00
     16.816  0.1291E-01  0.1103E-01  0.3482E+00  0.3475E+00
     16.938  0.1318E-01  0.1217E-01  0.3498E+00  0.3490E+00
     17.060  0.1796E-01  0.1540E-01  0.3520E+00  0.3509E+00
     17.182  0.1824E-01  0.1945E-01  0.3542E+00  0.3532E+00
     17.304  0.1329E-01  0.1567E-01  0.3558E+00  0.3551E+00
     17.425  0.1307E-01  0.1331E-01  0.3574E+00  0.3568E+00
     17.547  0.1117E-01  0.1008E-01  0.3588E+00  0.3580E+00
     17.669  0.8537E-02  0.1192E-01  0.3598E+00  0.3594E+00
     17.791  0.8713E-03  0.3721E-02  0.3599E+00  0.3599E+00
     17.913  0.3468E-03  0.5760E-03  0.3600E+00  0.3600E+00
     18.035  0.2236E-03  0.2211E-03  0.3600E+00  0.3600E+00
     18.157  0.2897E-07  0.1287E-07  0.3600E+00  0.3600E+00
     18.279  0.0000E+00  0.0000E+00  0.3600E+00  0.3600E+00
     18.401  0.0000E+00  0.0000E+00  0.3600E+00  0.3600E+00
     18.523  0.0000E+00  0.0000E+00  0.3600E+00  0.3600E+00
     18.645  0.0000E+00  0.0000E+00  0.3600E+00  0.3600E+00
     18.767  0.0000E+00  0.0000E+00  0.3600E+00  0.3600E+00
     18.889  0.0000E+00  0.0000E+00  0.3600E+00  0.3600E+00
     19.011  0.0000E+00  0.0000E+00  0.3600E+00  0.3600E+00
     19.133  0.0000E+00  0.0000E+00  0.3600E+00  0.3600E+00
     19.254  0.0000E+00  0.0000E+00  0.3600E+00  0.3600E+00
     19.376  0.0000E+00  0.0000E+00  0.3600E+00  0.3600E+00
     19.498  0.0000E+00  0.0000E+00  0.3600E+00  0.3600E+00
     19.620  0.0000E+00  0.0000E+00  0.3600E+00  0.3600E+00
