 vasp.5.4.1 05Feb16 (build Apr 23 2022 14:15:44) complex                        
  
 executed on           IFC91_ompi date 2024.10.30  11:25:10
 running on   48 total cores
 distrk:  each k-point on   48 cores,    1 groups
 distr:  one band on NCORES_PER_BAND=   8 cores,    6 groups


--------------------------------------------------------------------------------------------------------


 INCAR:
 POTCAR:    PAW_PBE Co 02Aug2007                  
 POTCAR:    PAW_PBE O 08Apr2002                   
 POTCAR:    PAW_PBE Li 17Jan2003                  
 POTCAR:    PAW_PBE Co 02Aug2007                  
   VRHFIN =Co: d8 s1                                                            
   LEXCH  = PE                                                                  
   EATOM  =   813.3670 eV,   59.7808 Ry                                         
                                                                                
   TITEL  = PAW_PBE Co 02Aug2007                                                
   LULTRA =        F    use ultrasoft PP ?                                      
   IUNSCR =        1    unscreen: 0-lin 1-nonlin 2-no                           
   RPACOR =    2.000    partial core radius                                     
   POMASS =   58.933; ZVAL   =    9.000    mass and valenz                      
   RCORE  =    2.300    outmost cutoff radius                                   
   RWIGS  =    2.460; RWIGS  =    1.302    wigner-seitz radius (au A)           
   ENMAX  =  267.968; ENMIN  =  200.976 eV                                      
   RCLOC  =    1.203    cutoff for local pot                                    
   LCOR   =        T    correct aug charges                                     
   LPAW   =        T    paw PP                                                  
   EAUG   =  477.818                                                            
   DEXC   =    0.000                                                            
   RMAX   =    2.360    core radius for proj-oper                               
   RAUG   =    1.300    factor for augmentation sphere                          
   RDEP   =    2.393    radius for radial grids                                 
   RDEPT  =    1.864    core radius for aug-charge                              
                                                                                
   Atomic configuration                                                         
    9 entries                                                                   
     n  l   j            E        occ.                                          
     1  0  0.50     -7587.6674   2.0000                                         
     2  0  0.50      -893.6084   2.0000                                         
     2  1  1.50      -764.5805   6.0000                                         
     3  0  0.50       -97.5973   2.0000                                         
     3  1  1.50       -60.9648   6.0000                                         
     3  2  2.50        -4.2382   8.0000                                         
     4  0  0.50        -4.3746   1.0000                                         
     4  1  1.50        -4.0817   0.0000                                         
     4  3  2.50        -1.3606   0.0000                                         
   Description                                                                  
     l       E           TYP  RCUT    TYP  RCUT                                 
     2     -4.2382362     23  2.300                                             
     2     -5.5988188     23  2.300                                             
     0     -4.3745797     23  2.300                                             
     0      5.7660125     23  2.300                                             
     1     -2.7211652     23  2.300                                             
     1     16.9860234     23  2.300                                             
  local pseudopotential read in
  partial core-charges read in
  partial kinetic energy density read in
  atomic valenz-charges read in
  non local Contribution for L=           2  read in
    real space projection operators read in
  non local Contribution for L=           2  read in
    real space projection operators read in
  non local Contribution for L=           0  read in
    real space projection operators read in
  non local Contribution for L=           0  read in
    real space projection operators read in
  non local Contribution for L=           1  read in
    real space projection operators read in
  non local Contribution for L=           1  read in
    real space projection operators read in
    PAW grid and wavefunctions read in
 
   number of l-projection  operators is LMAX  =           6
   number of lm-projection operators is LMMAX =          18
 
 POTCAR:    PAW_PBE O 08Apr2002                   
   VRHFIN =O: s2p4                                                              
   LEXCH  = PE                                                                  
   EATOM  =   432.3788 eV,   31.7789 Ry                                         
                                                                                
   TITEL  = PAW_PBE O 08Apr2002                                                 
   LULTRA =        F    use ultrasoft PP ?                                      
   IUNSCR =        1    unscreen: 0-lin 1-nonlin 2-no                           
   RPACOR =    1.200    partial core radius                                     
   POMASS =   16.000; ZVAL   =    6.000    mass and valenz                      
   RCORE  =    1.520    outmost cutoff radius                                   
   RWIGS  =    1.550; RWIGS  =    0.820    wigner-seitz radius (au A)           
   ENMAX  =  400.000; ENMIN  =  300.000 eV                                      
   ICORE  =        2    local potential                                         
   LCOR   =        T    correct aug charges                                     
   LPAW   =        T    paw PP                                                  
   EAUG   =  605.392                                                            
   DEXC   =    0.000                                                            
   RMAX   =    1.553    core radius for proj-oper                               
   RAUG   =    1.300    factor for augmentation sphere                          
   RDEP   =    1.550    radius for radial grids                                 
   RDEPT  =    1.329    core radius for aug-charge                              
                                                                                
   Atomic configuration                                                         
    4 entries                                                                   
     n  l   j            E        occ.                                          
     1  0  0.50      -514.6923   2.0000                                         
     2  0  0.50       -23.9615   2.0000                                         
     2  1  0.50        -9.0305   4.0000                                         
     3  2  1.50        -9.5241   0.0000                                         
   Description                                                                  
     l       E           TYP  RCUT    TYP  RCUT                                 
     0    -23.9615318     23  1.200                                             
     0     -9.5240782     23  1.200                                             
     1     -9.0304911     23  1.520                                             
     1      8.1634956     23  1.520                                             
     2     -9.5240782      7  1.500                                             
  local pseudopotential read in
  partial core-charges read in
  partial kinetic energy density read in
  kinetic energy density of atom read in
  atomic valenz-charges read in
  non local Contribution for L=           0  read in
    real space projection operators read in
  non local Contribution for L=           0  read in
    real space projection operators read in
  non local Contribution for L=           1  read in
    real space projection operators read in
  non local Contribution for L=           1  read in
    real space projection operators read in
    PAW grid and wavefunctions read in
 
   number of l-projection  operators is LMAX  =           4
   number of lm-projection operators is LMMAX =           8
 
 POTCAR:    PAW_PBE Li 17Jan2003                  
   VRHFIN =Li: s1p0                                                             
   LEXCH  = PE                                                                  
   EATOM  =     5.3001 eV,    0.3895 Ry                                         
                                                                                
   TITEL  = PAW_PBE Li 17Jan2003                                                
   LULTRA =        F    use ultrasoft PP ?                                      
   IUNSCR =        1    unscreen: 0-lin 1-nonlin 2-no                           
   RPACOR =    1.500    partial core radius                                     
   POMASS =    7.010; ZVAL   =    1.000    mass and valenz                      
   RCORE  =    2.050    outmost cutoff radius                                   
   RWIGS  =    2.600; RWIGS  =    1.376    wigner-seitz radius (au A)           
   ENMAX  =  140.000; ENMIN  =  100.000 eV                                      
   ICORE  =        2    local potential                                         
   LCOR   =        T    correct aug charges                                     
   LPAW   =        T    paw PP                                                  
   EAUG   =  331.638                                                            
   DEXC   =    0.000                                                            
   RMAX   =    2.098    core radius for proj-oper                               
   RAUG   =    1.300    factor for augmentation sphere                          
   RDEP   =    2.094    radius for radial grids                                 
   RDEPT  =    1.810    core radius for aug-charge                              
                                                                                
   Atomic configuration                                                         
    4 entries                                                                   
     n  l   j            E        occ.                                          
     1  0  0.50       -51.8549   2.0000                                         
     2  0  0.50        -2.8742   1.0000                                         
     2  1  0.50        -1.3606   0.0000                                         
     3  2  1.50        -1.3606   0.0000                                         
   Description                                                                  
     l       E           TYP  RCUT    TYP  RCUT                                 
     0     -2.8742052     23  2.050                                             
     0     27.2116520     23  2.050                                             
     1     -1.3605826     23  2.050                                             
     2     -1.3605826     23  2.050                                             
  local pseudopotential read in
  partial core-charges read in
  partial kinetic energy density read in
  atomic valenz-charges read in
  non local Contribution for L=           0  read in
    real space projection operators read in
  non local Contribution for L=           0  read in
    real space projection operators read in
  non local Contribution for L=           1  read in
    real space projection operators read in
    PAW grid and wavefunctions read in
 
   number of l-projection  operators is LMAX  =           3
   number of lm-projection operators is LMMAX =           5
 
 Optimization of the real space projectors (new method)

 maximal supplied QI-value         = 16.25
 optimisation between [QCUT,QGAM] = [ 12.51, 25.03] = [ 43.85,175.40] Ry 
 Optimized for a Real-space Cutoff    1.31 Angstroem

   l    n(q)    QCUT    max X(q) W(low)/X(q) W(high)/X(q)  e(spline) 
   2      9    12.514    65.824    0.30E-03    0.46E-03    0.43E-06
   2      9    12.514    61.429    0.31E-03    0.46E-03    0.44E-06
   0     10    12.514    56.174    0.90E-04    0.33E-03    0.30E-06
   0     10    12.514    31.263    0.81E-04    0.30E-03    0.28E-06
   1      9    12.514    19.828    0.38E-03    0.65E-04    0.24E-06
   1      9    12.514    15.139    0.32E-03    0.60E-04    0.20E-06
 Optimization of the real space projectors (new method)

 maximal supplied QI-value         = 24.76
 optimisation between [QCUT,QGAM] = [ 12.38, 25.00] = [ 42.90,175.06] Ry 
 Optimized for a Real-space Cutoff    1.13 Angstroem

   l    n(q)    QCUT    max X(q) W(low)/X(q) W(high)/X(q)  e(spline) 
   0      8    12.378    20.381    0.16E-03    0.54E-05    0.27E-06
   0      8    12.378    15.268    0.17E-03    0.61E-05    0.29E-06
   1      8    12.378     5.964    0.38E-03    0.23E-03    0.28E-06
   1      8    12.378     5.382    0.33E-03    0.20E-03    0.25E-06
 Optimization of the real space projectors (new method)

 maximal supplied QI-value         = 18.33
 optimisation between [QCUT,QGAM] = [ 12.46, 24.93] = [ 43.51,174.03] Ry 
 Optimized for a Real-space Cutoff    1.13 Angstroem

   l    n(q)    QCUT    max X(q) W(low)/X(q) W(high)/X(q)  e(spline) 
   0      8    12.465    33.825    0.12E-03    0.29E-03    0.99E-07
   0      8    12.465     8.944    0.86E-04    0.22E-03    0.72E-07
   1      8    12.465     4.214    0.27E-03    0.11E-03    0.82E-07
  PAW_PBE Co 02Aug2007                  :
 energy of atom  1       EATOM= -813.3670
 kinetic energy error for atom=    0.0018 (will be added to EATOM!!)
  PAW_PBE O 08Apr2002                   :
 energy of atom  2       EATOM= -432.3788
 kinetic energy error for atom=    0.0168 (will be added to EATOM!!)
  PAW_PBE Li 17Jan2003                  :
 energy of atom  3       EATOM=   -5.3001
 kinetic energy error for atom=    0.0000 (will be added to EATOM!!)
 
 
 POSCAR: Co  O Li                                
  positions in cartesian coordinates
  No initial velocities read in
 exchange correlation table for  LEXCH =        8
   RHO(1)=    0.500       N(1)  =     2000
   RHO(2)=  100.500       N(2)  =     4000

 VTST: version 3.1, (03/28/14)

 CHAIN: initializing optimizer
 
 OPT: Using VASP Conjugate-Gradient optimizer
 CHAIN: Read ICHAIN            0
 
 POSCAR: Co  O Li                                
  positions in cartesian coordinates
  No initial velocities read in
 


--------------------------------------------------------------------------------------------------------


 ion  position               nearest neighbor table
   1  0.188  0.341  0.166-  20 1.89  14 1.89  19 1.89  13 1.89  25 1.89  32 1.89  10 2.79  10 2.79
                             7 2.79   7 2.79   4 2.81   4 2.82  37 2.84  38 2.84  40 2.84  41 2.86
   2  0.021  0.006  0.496-  28 1.89  33 1.89  34 1.89  16 1.90  21 1.92  15 1.92  11 2.78   8 2.78
                            11 2.80  38 2.80   8 2.80   5 2.81   5 2.82  39 2.88  42 2.90
   3  0.352  0.175  0.837-  35 1.89  29 1.89  30 1.89  17 1.91  24 1.92  18 1.92  12 2.78   9 2.79
                            37 2.79  12 2.80   9 2.80   6 2.81   6 2.82  42 2.87  39 2.88
   4  0.188  0.841  0.166-  20 1.89  19 1.89  13 1.89  14 1.89  31 1.89  26 1.90   7 2.79   7 2.79
                            10 2.79  10 2.79  38 2.81   1 2.81   1 2.82  40 2.84  37 2.84  41 2.85
   5  0.020  0.505  0.496-  28 1.86  27 1.87  34 1.88  22 1.89  21 1.89  15 1.91   8 2.78  11 2.78
                             8 2.80  11 2.80   2 2.81   2 2.82  41 2.85  39 2.89  42 2.93
   6  0.352  0.675  0.837-  35 1.89  29 1.89  36 1.89  23 1.90  18 1.92  24 1.92   9 2.78  12 2.78
                            40 2.79   9 2.79  12 2.80   3 2.81   3 2.82  42 2.87  39 2.91
   7  0.688  0.341  0.167-  20 1.86  13 1.86  31 1.90  25 1.90  32 1.90  26 1.90   4 2.79   4 2.79
                             1 2.79   1 2.79  10 2.81  10 2.82  40 2.92  38 2.93
   8  0.523  0.006  0.503-  33 1.89  28 1.89  27 1.89  21 1.90  16 1.92  22 1.92   5 2.78   2 2.78
                             5 2.80  42 2.80   2 2.80  11 2.81  11 2.82  41 2.87  38 2.91
   9  0.850  0.174  0.830-  29 1.86  18 1.87  36 1.88  30 1.88  23 1.90  17 1.90   6 2.78   3 2.79
                             6 2.79   3 2.80  12 2.81  12 2.82  39 2.87  40 2.90  37 2.90
  10  0.688  0.841  0.166-  19 1.86  14 1.86  25 1.90  32 1.90  31 1.90  26 1.91   1 2.79   1 2.79
                             4 2.79   4 2.79   7 2.81   7 2.82  41 2.88  37 2.93
  11  0.523  0.507  0.503-  33 1.86  34 1.87  27 1.88  15 1.88  16 1.89  22 1.91   2 2.78   5 2.78
                             2 2.80   5 2.80   8 2.81   8 2.82  39 2.84  41 2.89  38 2.93
  12  0.850  0.674  0.830-  35 1.86  24 1.87  30 1.88  36 1.88  17 1.90  23 1.90   3 2.78   6 2.78
                             3 2.80   6 2.80   9 2.81   9 2.82  40 2.91  37 2.91  42 2.91
  13  0.353  0.175  0.098-   7 1.86   4 1.89   1 1.89  37 2.06
  14  0.022  0.008  0.234-  10 1.86   1 1.89   4 1.89  38 2.03
  15  0.196  0.345  0.428-  11 1.88   5 1.91   2 1.92  38 2.09  41 2.10
  16  0.353  0.175  0.571-  11 1.89   2 1.90   8 1.92  42 2.07  39 2.09
  17  0.019  0.009  0.762-  12 1.90   9 1.90   3 1.91  39 2.11  42 2.16
  18  0.174  0.336  0.905-   9 1.87   6 1.92   3 1.92  37 2.06  40 2.06
  19  0.353  0.675  0.098-  10 1.86   4 1.89   1 1.89  40 2.06
  20  0.022  0.508  0.235-   7 1.86   1 1.89   4 1.89  41 2.11
  21  0.190  0.838  0.428-   5 1.89   8 1.90   2 1.92  38 2.08  41 2.09
  22  0.347  0.667  0.571-   5 1.89  11 1.91   8 1.92  39 2.09  42 2.10
  23  0.019  0.509  0.762-   9 1.90  12 1.90   6 1.90  39 2.16  42 2.16
  24  0.174  0.836  0.905-  12 1.87   3 1.92   6 1.92  40 2.06  37 2.06
  25  0.850  0.173  0.096-   1 1.89  10 1.90   7 1.90  37 2.17  40 2.17
  26  0.526  0.010  0.237-   4 1.90   7 1.90  10 1.91  41 2.12  38 2.15
  27  0.676  0.336  0.432-   5 1.87  11 1.88   8 1.89  38 2.14
  28  0.871  0.184  0.567-   5 1.86   2 1.89   8 1.89  39 2.06
  29  0.509  0.004  0.767-   9 1.86   6 1.89   3 1.89  42 2.01
  30  0.701  0.349  0.901-  12 1.88   9 1.88   3 1.89  40 2.10
  31  0.850  0.672  0.096-   4 1.89   7 1.90  10 1.90  40 2.16  37 2.17
  32  0.526  0.510  0.237-   1 1.89  10 1.90   7 1.90  41 2.14  38 2.19
  33  0.672  0.828  0.433-  11 1.86   8 1.89   2 1.89  41 2.05
  34  0.867  0.677  0.567-  11 1.87   5 1.88   2 1.89  42 2.14
  35  0.508  0.504  0.767-  12 1.86   6 1.89   3 1.89  39 2.08
  36  0.701  0.849  0.901-   9 1.88  12 1.88   6 1.89  37 2.11
  37  0.035  0.016  0.999-  13 2.06  18 2.06  24 2.06  36 2.11  25 2.17  31 2.17   3 2.79  40 2.81
                            40 2.82   1 2.84   4 2.84   9 2.90  12 2.91  10 2.93
  38  0.336  0.160  0.333-  14 2.03  21 2.08  15 2.09  27 2.14  26 2.15  32 2.19  41 2.78   2 2.80
                             4 2.81   1 2.84  41 2.85   8 2.91  11 2.93   7 2.93
  39  0.190  0.338  0.666-  28 2.06  35 2.08  22 2.09  16 2.09  17 2.11  23 2.16  42 2.78  11 2.84
                            42 2.85   9 2.87   2 2.88   3 2.88   5 2.89   6 2.91
  40  0.034  0.516  0.999-  24 2.06  19 2.06  18 2.06  30 2.10  31 2.16  25 2.17   6 2.79  37 2.81
                            37 2.82   4 2.84   1 2.84   9 2.90  12 2.91   7 2.92
  41  0.357  0.677  0.333-  33 2.05  21 2.09  15 2.10  20 2.11  26 2.12  32 2.14  38 2.78   5 2.85
                            38 2.85   4 2.85   1 2.86   8 2.87  10 2.88  11 2.89
  42  0.207  0.853  0.666-  29 2.01  16 2.07  22 2.10  34 2.14  23 2.16  17 2.16  39 2.78   8 2.80
                            39 2.85   3 2.87   6 2.87   2 2.90  12 2.91   5 2.93
 
  LATTYP: Found a triclinic cell.
 ALAT       =     5.5738893688
 B/A-ratio  =     1.0099882838
 C/A-ratio  =     3.0448122449
 COS(alpha) =     0.0001866490
 COS(beta)  =     0.4760763969
 COS(gamma) =     0.5035680007
  
  Lattice vectors:
  
 A1 = (   2.7615340607,   4.8414515438,  -0.0501923930)
 A2 = (  -2.8200642862,   4.8722906739,   0.0003254708)
 A3 = (   8.2189486277,   4.7598183485,  14.0649568967)


Analysis of symmetry for initial positions (statically):
=====================================================================
 Subroutine PRICEL returns:
 Original cell was already a primitive cell.
 

 Routine SETGRP: Setting up the symmetry group for a 
 triclinic supercell.


 Subroutine GETGRP returns: Found  1 space group operations
 (whereof  1 operations were pure point group operations)
 out of a pool of  2 trial point group operations.


The static configuration has the point symmetry C_1 .


Analysis of symmetry for dynamics (positions and initial velocities):
=====================================================================
 Subroutine PRICEL returns:
 Original cell was already a primitive cell.
 

 Routine SETGRP: Setting up the symmetry group for a 
 triclinic supercell.


 Subroutine GETGRP returns: Found  1 space group operations
 (whereof  1 operations were pure point group operations)
 out of a pool of  2 trial point group operations.


The dynamic configuration has the point symmetry C_1 .


Analysis of structural, dynamic, and magnetic symmetry:
=====================================================================
 Subroutine PRICEL returns:
 Original cell was already a primitive cell.
 

 Routine SETGRP: Setting up the symmetry group for a 
 triclinic supercell.


 Subroutine GETGRP returns: Found  1 space group operations
 (whereof  1 operations were pure point group operations)
 out of a pool of  2 trial point group operations.


The magnetic configuration has the point symmetry C_1 .


 Subroutine INISYM returns: Found  1 space group operations
 (whereof  1 operations are pure point group operations),
 and found     1 'primitive' translations

 
 
 KPOINTS: KPOINTS created by Atomic Simulation Env

Automatic generation of k-mesh.
Space group operators:
 irot       det(A)        alpha          n_x          n_y          n_z        tau_x        tau_y        tau_z
    1     1.000000     0.000001     1.000000     0.000000     0.000000     0.000000     0.000000     0.000000
 
 Subroutine IBZKPT returns following result:
 ===========================================
 
 Found     40 irreducible k-points:
 
 Following reciprocal coordinates:
            Coordinates               Weight
  0.000000  0.000000  0.000000      1.000000
  0.166667 -0.000000 -0.000000      2.000000
  0.333333 -0.000000 -0.000000      2.000000
  0.500000 -0.000000 -0.000000      1.000000
  0.000000  0.166667 -0.000000      2.000000
  0.166667  0.166667 -0.000000      2.000000
  0.333333  0.166667 -0.000000      2.000000
  0.500000  0.166667 -0.000000      2.000000
 -0.333333  0.166667  0.000000      2.000000
 -0.166667  0.166667  0.000000      2.000000
  0.000000  0.333333 -0.000000      2.000000
  0.166667  0.333333  0.000000      2.000000
  0.333333  0.333333 -0.000000      2.000000
  0.500000  0.333333 -0.000000      2.000000
 -0.333333  0.333333  0.000000      2.000000
 -0.166667  0.333333  0.000000      2.000000
  0.000000  0.500000 -0.000000      1.000000
  0.166667  0.500000 -0.000000      2.000000
  0.333333  0.500000  0.000000      2.000000
  0.500000  0.500000 -0.000000      1.000000
  0.000000  0.000000  0.500000      1.000000
  0.166667  0.000000  0.500000      2.000000
  0.333333 -0.000000  0.500000      2.000000
  0.500000 -0.000000  0.500000      1.000000
  0.000000  0.166667  0.500000      2.000000
  0.166667  0.166667  0.500000      2.000000
  0.333333  0.166667  0.500000      2.000000
  0.500000  0.166667  0.500000      2.000000
 -0.333333  0.166667  0.500000      2.000000
 -0.166667  0.166667  0.500000      2.000000
  0.000000  0.333333  0.500000      2.000000
  0.166667  0.333333  0.500000      2.000000
  0.333333  0.333333  0.500000      2.000000
  0.500000  0.333333  0.500000      2.000000
 -0.333333  0.333333  0.500000      2.000000
 -0.166667  0.333333  0.500000      2.000000
  0.000000  0.500000  0.500000      1.000000
  0.166667  0.500000  0.500000      2.000000
  0.333333  0.500000  0.500000      2.000000
  0.500000  0.500000  0.500000      1.000000
 
 Following cartesian coordinates:
            Coordinates               Weight
  0.000000  0.000000  0.000000      1.000000
  0.029959  0.017340  0.000325      2.000000
  0.059918  0.034680  0.000650      2.000000
  0.089876  0.052020  0.000974      1.000000
  0.000191  0.034317  0.000125      2.000000
  0.030150  0.051657  0.000450      2.000000
  0.060108  0.068997  0.000774      2.000000
  0.090067  0.086337  0.001099      2.000000
 -0.059727 -0.000363 -0.000525      2.000000
 -0.029768  0.016977 -0.000200      2.000000
  0.000381  0.068635  0.000249      2.000000
  0.030340  0.085975  0.000574      2.000000
  0.060299  0.103315  0.000899      2.000000
  0.090258  0.120655  0.001224      2.000000
 -0.059536  0.033955 -0.000400      2.000000
 -0.029577  0.051295 -0.000075      2.000000
  0.000572  0.102952  0.000374      1.000000
  0.030531  0.120292  0.000699      2.000000
  0.060490  0.137632  0.001024      2.000000
  0.090449  0.154972  0.001349      1.000000
  0.000321  0.000183  0.035300      1.000000
  0.030279  0.017523  0.035625      2.000000
  0.060238  0.034863  0.035950      2.000000
  0.090197  0.052203  0.036275      1.000000
  0.000511  0.034501  0.035425      2.000000
  0.030470  0.051841  0.035750      2.000000
  0.060429  0.069181  0.036074      2.000000
  0.090388  0.086521  0.036399      2.000000
 -0.059406 -0.000179  0.034775      2.000000
 -0.029448  0.017161  0.035100      2.000000
  0.000702  0.068818  0.035550      2.000000
  0.030661  0.086158  0.035874      2.000000
  0.060620  0.103498  0.036199      2.000000
  0.090578  0.120838  0.036524      2.000000
 -0.059216  0.034138  0.034900      2.000000
 -0.029257  0.051478  0.035225      2.000000
  0.000893  0.103135  0.035674      1.000000
  0.030851  0.120475  0.035999      2.000000
  0.060810  0.137815  0.036324      2.000000
  0.090769  0.155155  0.036649      1.000000
 


--------------------------------------------------------------------------------------------------------




 Dimension of arrays:
   k-points           NKPTS =     40   k-points in BZ     NKDIM =     40   number of bands    NBANDS=    180
   number of dos      NEDOS =    301   number of ions     NIONS =     42
   non local maximal  LDIM  =      6   non local SUM 2l+1 LMDIM =     18
   total plane-waves  NPLWV = 116640
   max r-space proj   IRMAX =   2889   max aug-charges    IRDMAX=  12179
   dimension x,y,z NGX =    36 NGY =   36 NGZ =   90
   dimension x,y,z NGXF=    72 NGYF=   72 NGZF=  180
   support grid    NGXF=    72 NGYF=   72 NGZF=  180
   ions per type =              12  24   6
 NGX,Y,Z   is equivalent  to a cutoff of  10.72, 10.63, 10.56 a.u.
 NGXF,Y,Z  is equivalent  to a cutoff of  21.44, 21.26, 21.12 a.u.


 I would recommend the setting:
   dimension x,y,z NGX =    33 NGY =   34 NGZ =   85
 SYSTEM =  unknown system                          
 POSCAR =  Co  O Li                                

 Startparameter for this run:
   NWRITE =      2    write-flag & timer
   PREC   = normal    normal or accurate (medium, high low for compatibility)
   ISTART =      0    job   : 0-new  1-cont  2-samecut
   ICHARG =      2    charge: 1-file 2-atom 10-const
   ISPIN  =      2    spin polarized calculation?
   LNONCOLLINEAR =      F non collinear calculations
   LSORBIT =      F    spin-orbit coupling
   INIWAV =      1    electr: 0-lowe 1-rand  2-diag
   LASPH  =      F    aspherical Exc in radial PAW
   METAGGA=      F    non-selfconsistent MetaGGA calc.

 Electronic Relaxation 1
   ENCUT  =  600.0 eV  44.10 Ry    6.64 a.u.  11.15 11.24 28.29*2*pi/ulx,y,z
   ENINI  =  600.0     initial cutoff
   ENAUG  =  605.4 eV  augmentation charge cutoff
   NELM   =    500;   NELMIN=  2; NELMDL=  0     # of ELM steps 
   EDIFF  = 0.1E-05   stopping-criterion for ELM
   LREAL  =      T    real-space projection
   NLSPLINE    = F    spline interpolate recip. space projectors
   LCOMPAT=      F    compatible to vasp.4.4
   GGA_COMPAT  = T    GGA compatible to vasp.4.4-vasp.4.6
   LMAXPAW     = -100 max onsite density
   LMAXMIX     =    4 max onsite mixed and CHGCAR
   VOSKOWN=      0    Vosko Wilk Nusair interpolation
   ROPT   =   -0.00050  -0.00050  -0.00050
 Ionic relaxation
   EDIFFG = -.1E-01   stopping-criterion for IOM
   NSW    =    500    number of steps for IOM
   NBLOCK =      1;   KBLOCK =    500    inner block; outer block 
   IBRION =      2    ionic relax: 0-MD 1-quasi-New 2-CG
   NFREE  =      1    steps in history (QN), initial steepest desc. (CG)
   ISIF   =      3    stress and relaxation
   IWAVPR =     11    prediction:  0-non 1-charg 2-wave 3-comb
   ISYM   =      2    0-nonsym 1-usesym 2-fastsym
   LCORR  =      T    Harris-Foulkes like correction to forces

   POTIM  = 0.5000    time-step for ionic-motion
   TEIN   =    0.0    initial temperature
   TEBEG  =    0.0;   TEEND  =   0.0 temperature during run
   SMASS  =  -3.00    Nose mass-parameter (am)
   estimated Nose-frequenzy (Omega)   =  0.10E-29 period in steps =****** mass=  -0.712E-27a.u.
   SCALEE = 1.0000    scale energy and forces
   NPACO  =    256;   APACO  = 16.0  distance and # of slots for P.C.
   PSTRESS=    0.0 pullay stress

  Mass of Ions in am
   POMASS =  58.93 16.00  7.01
  Ionic Valenz
   ZVAL   =   9.00  6.00  1.00
  Atomic Wigner-Seitz radii
   RWIGS  =  -1.00 -1.00 -1.00
  virtual crystal weights 
   VCA    =   1.00  1.00  1.00
   NELECT =     258.0000    total number of electrons
   NUPDOWN=      -1.0000    fix difference up-down

 DOS related values:
   EMIN   =  10.00;   EMAX   =-10.00  energy-range for DOS
   EFERMI =   0.00
   ISMEAR =     0;   SIGMA  =   0.03  broadening in eV -4-tet -1-fermi 0-gaus

 Electronic relaxation 2 (details)
   IALGO  =     48    algorithm
   LDIAG  =      T    sub-space diagonalisation (order eigenvalues)
   LSUBROT=      F    optimize rotation matrix (better conditioning)
   TURBO    =      0    0=normal 1=particle mesh
   IRESTART =      0    0=no restart 2=restart with 2 vectors
   NREBOOT  =      0    no. of reboots
   NMIN     =      0    reboot dimension
   EREF     =   0.00    reference energy to select bands
   IMIX   =      4    mixing-type and parameters
     AMIX     =   0.40;   BMIX     =  1.00
     AMIX_MAG =   1.60;   BMIX_MAG =  1.00
     AMIN     =   0.10
     WC   =   100.;   INIMIX=   1;  MIXPRE=   1;  MAXMIX= -45

 Intra band minimization:
   WEIMIN = 0.0010     energy-eigenvalue tresh-hold
   EBREAK =  0.14E-08  absolut break condition
   DEPER  =   0.30     relativ break condition  

   TIME   =   0.40     timestep for ELM

  volume/ion in A,a.u.               =       9.14        61.69
  Fermi-wavevector in a.u.,A,eV,Ry     =   1.433892  2.709663 27.974199  2.056046
  Thomas-Fermi vector in A             =   2.553360
 
 Write flags
   LWAVE  =      F    write WAVECAR
   LCHARG =      F    write CHGCAR
   LVTOT  =      F    write LOCPOT, total local potential
   LVHAR  =      F    write LOCPOT, Hartree potential only
   LELF   =      F    write electronic localiz. function (ELF)
   LORBIT =      0    0 simple, 1 ext, 2 COOP (PROOUT)


 Dipole corrections
   LMONO  =      F    monopole corrections only (constant potential shift)
   LDIPOL =      F    correct potential (dipole corrections)
   IDIPOL =      0    1-x, 2-y, 3-z, 4-all directions 
   EPSILON=  1.0000000 bulk dielectric constant

 LDA+U is selected, type is set to LDAUTYPE =  2
   angular momentum for each species LDAUL =     2   -1   -1
   U (eV)           for each species LDAUU =   3.3  0.0  0.0
   J (eV)           for each species LDAUJ =   0.0  0.0  0.0
 Exchange correlation treatment:
   GGA     =    PE    GGA type
   LEXCH   =     8    internal setting for exchange type
   VOSKOWN=      0    Vosko Wilk Nusair interpolation
   LHFCALC =     F    Hartree Fock is set to
   LHFONE  =     F    Hartree Fock one center treatment
   AEXX    =    0.0000 exact exchange contribution

 Linear response parameters
   LEPSILON=     F    determine dielectric tensor
   LRPA    =     F    only Hartree local field effects (RPA)
   LNABLA  =     F    use nabla operator in PAW spheres
   LVEL    =     F    velocity operator in full k-point grid
   LINTERFAST=   F  fast interpolation
   KINTER  =     0    interpolate to denser k-point grid
   CSHIFT  =0.1000    complex shift for real part using Kramers Kronig
   OMEGAMAX=  -1.0    maximum frequency
   DEG_THRESHOLD= 0.2000000E-02 threshold for treating states as degnerate
   RTIME   =    0.100 relaxation time in fs

 Orbital magnetization related:
   ORBITALMAG=     F  switch on orbital magnetization
   LCHIMAG   =     F  perturbation theory with respect to B field
   DQ        =  0.001000  dq finite difference perturbation B field



--------------------------------------------------------------------------------------------------------


 conjugate gradient relaxation of ions
 charge density and potential will be updated during run
 spin polarized calculation
 RMM-DIIS sequential band-by-band
 perform sub-space diagonalisation
    before iterative eigenvector-optimisation
 modified Broyden-mixing scheme, WC =      100.0
 initial mixing is a Kerker type mixing with AMIX =  0.4000 and BMIX =      1.0000
 Hartree-type preconditioning will be used
 using additional bands           51
 real space projection scheme for non local part
 use partial core corrections
 calculate Harris-corrections to forces 
   (improved forces if not selfconsistent)
 use gradient corrections 
 use of overlap-Matrix (Vanderbilt PP)
 Gauss-broadening in eV      SIGMA  =   0.03


--------------------------------------------------------------------------------------------------------


  energy-cutoff  :      600.00
  volume of cell :      383.97
      direct lattice vectors                 reciprocal lattice vectors
     5.581598347 -0.030839130 -0.050517864     0.179752625  0.104040042  0.001948865
    -2.820064286  4.872290674  0.000325471     0.001144426  0.205904610  0.000748348
    -0.124183780 -0.050794065 14.165667153     0.000641011  0.000366299  0.070600149

  length of vectors
     5.581912147  5.629562958 14.166302536     0.207699626  0.205909150  0.070604009


 
 k-points in units of 2pi/SCALE and weight: KPOINTS created by Atomic Simulation Env
   0.00000000  0.00000000  0.00000000       0.014
   0.02995877  0.01734001  0.00032481       0.028
   0.05991754  0.03468001  0.00064962       0.028
   0.08987631  0.05202002  0.00097443       0.014
   0.00019074  0.03431743  0.00012472       0.028
   0.03014951  0.05165744  0.00044954       0.028
   0.06010828  0.06899745  0.00077435       0.028
   0.09006705  0.08633746  0.00109916       0.028
  -0.05972680 -0.00036258 -0.00052490       0.028
  -0.02976803  0.01697743 -0.00020009       0.028
   0.00038148  0.06863487  0.00024945       0.028
   0.03034025  0.08597488  0.00057426       0.028
   0.06029902  0.10331488  0.00089907       0.028
   0.09025779  0.12065489  0.00122388       0.028
  -0.05953607  0.03395486 -0.00040017       0.028
  -0.02957730  0.05129486 -0.00007536       0.028
   0.00057221  0.10295230  0.00037417       0.014
   0.03053098  0.12029231  0.00069898       0.028
   0.06048975  0.13763232  0.00102380       0.028
   0.09044853  0.15497233  0.00134861       0.014
   0.00032051  0.00018315  0.03530007       0.014
   0.03027928  0.01752316  0.03562489       0.028
   0.06023805  0.03486316  0.03594970       0.028
   0.09019682  0.05220317  0.03627451       0.014
   0.00051124  0.03450058  0.03542480       0.028
   0.03047001  0.05184059  0.03574961       0.028
   0.06042878  0.06918060  0.03607442       0.028
   0.09038756  0.08652061  0.03639923       0.028
  -0.05940630 -0.00017943  0.03477518       0.028
  -0.02944753  0.01716058  0.03509999       0.028
   0.00070198  0.06881802  0.03554952       0.028
   0.03066075  0.08615803  0.03587433       0.028
   0.06061952  0.10349803  0.03619915       0.028
   0.09057829  0.12083804  0.03652396       0.028
  -0.05921556  0.03413801  0.03489990       0.028
  -0.02925679  0.05147801  0.03522471       0.028
   0.00089272  0.10313545  0.03567425       0.014
   0.03085149  0.12047546  0.03599906       0.028
   0.06081026  0.13781547  0.03632387       0.028
   0.09076903  0.15515548  0.03664868       0.014
 
 k-points in reciprocal lattice and weights: KPOINTS created by Atomic Simulation Env
   0.00000000  0.00000000  0.00000000       0.014
   0.16666667 -0.00000000 -0.00000000       0.028
   0.33333333 -0.00000000 -0.00000000       0.028
   0.50000000 -0.00000000 -0.00000000       0.014
   0.00000000  0.16666667 -0.00000000       0.028
   0.16666667  0.16666667 -0.00000000       0.028
   0.33333333  0.16666667 -0.00000000       0.028
   0.50000000  0.16666667 -0.00000000       0.028
  -0.33333333  0.16666667  0.00000000       0.028
  -0.16666667  0.16666667  0.00000000       0.028
   0.00000000  0.33333333 -0.00000000       0.028
   0.16666667  0.33333333  0.00000000       0.028
   0.33333333  0.33333333 -0.00000000       0.028
   0.50000000  0.33333333 -0.00000000       0.028
  -0.33333333  0.33333333  0.00000000       0.028
  -0.16666667  0.33333333  0.00000000       0.028
   0.00000000  0.50000000 -0.00000000       0.014
   0.16666667  0.50000000 -0.00000000       0.028
   0.33333333  0.50000000  0.00000000       0.028
   0.50000000  0.50000000 -0.00000000       0.014
   0.00000000  0.00000000  0.50000000       0.014
   0.16666667  0.00000000  0.50000000       0.028
   0.33333333 -0.00000000  0.50000000       0.028
   0.50000000 -0.00000000  0.50000000       0.014
   0.00000000  0.16666667  0.50000000       0.028
   0.16666667  0.16666667  0.50000000       0.028
   0.33333333  0.16666667  0.50000000       0.028
   0.50000000  0.16666667  0.50000000       0.028
  -0.33333333  0.16666667  0.50000000       0.028
  -0.16666667  0.16666667  0.50000000       0.028
   0.00000000  0.33333333  0.50000000       0.028
   0.16666667  0.33333333  0.50000000       0.028
   0.33333333  0.33333333  0.50000000       0.028
   0.50000000  0.33333333  0.50000000       0.028
  -0.33333333  0.33333333  0.50000000       0.028
  -0.16666667  0.33333333  0.50000000       0.028
   0.00000000  0.50000000  0.50000000       0.014
   0.16666667  0.50000000  0.50000000       0.028
   0.33333333  0.50000000  0.50000000       0.028
   0.50000000  0.50000000  0.50000000       0.014
 
 position of ions in fractional coordinates (direct lattice) 
   0.18767158  0.34136146  0.16642196
   0.02056385  0.00581981  0.49648241
   0.35200911  0.17536333  0.83679693
   0.18761105  0.84120132  0.16643246
   0.02026634  0.50533088  0.49612648
   0.35194617  0.67522424  0.83683234
   0.68799545  0.34148995  0.16651905
   0.52263729  0.00647388  0.50271622
   0.85005249  0.17439457  0.83021492
   0.68759522  0.84120691  0.16626995
   0.52295621  0.50692365  0.50296859
   0.84964732  0.67409952  0.82996004
   0.35337142  0.17454084  0.09835676
   0.02197788  0.00805584  0.23449162
   0.19584067  0.34525718  0.42772998
   0.35316302  0.17459258  0.57129973
   0.01917009  0.00910128  0.76168811
   0.17402470  0.33584776  0.90526390
   0.35330413  0.67467315  0.09830829
   0.02240112  0.50809263  0.23452333
   0.19022263  0.83803272  0.42793557
   0.34746457  0.66720970  0.57145179
   0.01912131  0.50907445  0.76190911
   0.17387982  0.83589972  0.90521338
   0.84954499  0.17256648  0.09586931
   0.52563797  0.00997373  0.23724130
   0.67611824  0.33568087  0.43240717
   0.87106137  0.18408123  0.56666860
   0.50887445  0.00406811  0.76680485
   0.70062447  0.34943392  0.90107954
   0.84965813  0.67244363  0.09585786
   0.52573836  0.51011790  0.23701722
   0.67218789  0.82827385  0.43261674
   0.86704427  0.67657924  0.56684805
   0.50843203  0.50405327  0.76671157
   0.70076151  0.84938042  0.90107398
   0.03546049  0.01633528  0.99929596
   0.33580922  0.16022620  0.33276809
   0.18950753  0.33847065  0.66570443
   0.03431155  0.51605220  0.99928191
   0.35736755  0.67733066  0.33336919
   0.20662612  0.85308762  0.66641580
 
 position of ions in cartesian coordinates  (Angst):
   0.06417921  1.64897140  2.34810842
   0.03671185  0.00250329  7.03196768
   1.36632098  0.80106116 11.83606116
  -1.34574051  4.08433780  2.34842294
  -1.37355783  2.43629365  7.02710318
  -0.04367462  3.23652891 11.83672866
   2.85641166  1.63416295  2.32420859
   2.83646549 -0.01011006  7.09491028
   4.14974842  0.78131617 11.71766216
   1.44497472  4.06895423  2.32086276
   1.42691370  2.42820406  7.09863194
   2.73831852  3.21604936 11.71423467
   1.46794663  0.83452010  1.37549432
   0.07083369  0.02666182  3.32062265
   0.06633940  1.65442765  6.04929947
   1.40790568  0.81075591  8.07505762
  -0.01325575  0.00506365 10.78885482
  -0.08819541  1.58499912 12.81498509
   0.05717179  3.27131463  1.37497391
  -1.33694383  2.46297174  3.32121316
  -1.35470248  4.05553612  6.05265601
  -0.01313163  3.21109773  8.07765986
  -1.42351196  2.44106854 10.79215057
  -1.49917645  4.02140465 12.81443949
   4.24326493  0.80972522  1.31519165
   2.87631197  0.02033423  3.33413038
   2.77348088  1.59272014  6.09128929
   4.27242275  0.84125106  7.98329458
   2.73363577 -0.03482139 10.83659629
   2.81327882  1.63516750 12.72911257
   2.83421215  3.24526911  1.31518655
   1.46646142  2.45719028  3.33111384
   1.36237333  3.99288688  6.09461687
   2.86110261  3.24095930  7.98619972
   1.32118765  2.40127003 10.83546012
   1.40416315  4.07104822 12.72918949
   0.02776332  0.02773837 14.15390793
   1.38117959  0.75340990  4.69696978
   0.02057625  1.60946929  9.42068398
  -1.38788167  2.46254058 14.15392959
   0.04316705  3.27219778  4.70456400
  -1.33521595  4.11626872  9.43006381
 


--------------------------------------------------------------------------------------------------------


 k-point  1 :   0.0000 0.0000 0.0000  plane waves:   12829
 k-point  2 :   0.1667-0.0000-0.0000  plane waves:   12795
 k-point  3 :   0.3333-0.0000-0.0000  plane waves:   12820
 k-point  4 :   0.5000-0.0000-0.0000  plane waves:   12796
 k-point  5 :   0.0000 0.1667-0.0000  plane waves:   12807
 k-point  6 :   0.1667 0.1667-0.0000  plane waves:   12820
 k-point  7 :   0.3333 0.1667-0.0000  plane waves:   12836
 k-point  8 :   0.5000 0.1667-0.0000  plane waves:   12837
 k-point  9 :  -0.3333 0.1667 0.0000  plane waves:   12815
 k-point 10 :  -0.1667 0.1667 0.0000  plane waves:   12794
 k-point 11 :   0.0000 0.3333-0.0000  plane waves:   12805
 k-point 12 :   0.1667 0.3333 0.0000  plane waves:   12820
 k-point 13 :   0.3333 0.3333-0.0000  plane waves:   12820
 k-point 14 :   0.5000 0.3333-0.0000  plane waves:   12823
 k-point 15 :  -0.3333 0.3333 0.0000  plane waves:   12801
 k-point 16 :  -0.1667 0.3333 0.0000  plane waves:   12784
 k-point 17 :   0.0000 0.5000-0.0000  plane waves:   12820
 k-point 18 :   0.1667 0.5000-0.0000  plane waves:   12823
 k-point 19 :   0.3333 0.5000 0.0000  plane waves:   12815
 k-point 20 :   0.5000 0.5000-0.0000  plane waves:   12824
 k-point 21 :   0.0000 0.0000 0.5000  plane waves:   12804
 k-point 22 :   0.1667 0.0000 0.5000  plane waves:   12818
 k-point 23 :   0.3333-0.0000 0.5000  plane waves:   12824
 k-point 24 :   0.5000-0.0000 0.5000  plane waves:   12826
 k-point 25 :   0.0000 0.1667 0.5000  plane waves:   12786
 k-point 26 :   0.1667 0.1667 0.5000  plane waves:   12803
 k-point 27 :   0.3333 0.1667 0.5000  plane waves:   12830
 k-point 28 :   0.5000 0.1667 0.5000  plane waves:   12827
 k-point 29 :  -0.3333 0.1667 0.5000  plane waves:   12811
 k-point 30 :  -0.1667 0.1667 0.5000  plane waves:   12790
 k-point 31 :   0.0000 0.3333 0.5000  plane waves:   12813
 k-point 32 :   0.1667 0.3333 0.5000  plane waves:   12827
 k-point 33 :   0.3333 0.3333 0.5000  plane waves:   12835
 k-point 34 :   0.5000 0.3333 0.5000  plane waves:   12822
 k-point 35 :  -0.3333 0.3333 0.5000  plane waves:   12809
 k-point 36 :  -0.1667 0.3333 0.5000  plane waves:   12805
 k-point 37 :   0.0000 0.5000 0.5000  plane waves:   12836
 k-point 38 :   0.1667 0.5000 0.5000  plane waves:   12826
 k-point 39 :   0.3333 0.5000 0.5000  plane waves:   12819
 k-point 40 :   0.5000 0.5000 0.5000  plane waves:   12846

 maximum and minimum number of plane-waves per node :      1636     1575

 maximum number of plane-waves:     12846
 maximum index in each direction: 
   IXMAX=   11   IYMAX=   11   IZMAX=   28
   IXMIN=  -11   IYMIN=  -11   IZMIN=  -28

 WARNING: aliasing errors must be expected set NGX to  46 to avoid them
 WARNING: aliasing errors must be expected set NGY to  46 to avoid them
 WARNING: aliasing errors must be expected set NGZ to 114 to avoid them
 aliasing errors are usually negligible using standard VASP settings
 and one can safely disregard these warnings

 real space projection operators:
  total allocation   :       7708.30 KBytes
  max/ min on nodes  :       1088.41        841.43


 parallel 3D FFT for wavefunctions:
    minimum data exchange during FFTs selected (reduces bandwidth)
 parallel 3D FFT for charge:
    minimum data exchange during FFTs selected (reduces bandwidth)


 total amount of memory used by VASP on root node   102996. kBytes
========================================================================

   base      :      30000. kBytes
   nonlr-proj:       3373. kBytes
   fftplans  :       1322. kBytes
   grid      :       3603. kBytes
   one-center:        186. kBytes
   wavefun   :      64512. kBytes
 
     INWAV:  cpu time    0.0000: real time    0.0000
 Broyden mixing: mesh for mixing (old mesh)
   NGX = 23   NGY = 23   NGZ = 57
  (NGX  = 72   NGY  = 72   NGZ  =180)
  gives a total of  30153 points

 initial charge density was supplied:
 charge density of overlapping atoms calculated
 number of electron     258.0000000 magnetization      42.0000000
 keeping initial charge density in first step


--------------------------------------------------------------------------------------------------------


 Maximum index for non-local projection operator          470
 Maximum index for augmentation-charges          556 (set IRDMAX)


--------------------------------------------------------------------------------------------------------


 First call to EWALD:  gamma=   0.244
 Maximum number of real-space cells 4x 4x 2
 Maximum number of reciprocal cells 2x 2x 5

 FEWALD executed in parallel
    FEWALD:  cpu time    0.0022: real time    0.0022


----------------------------------------- Iteration    1(   1)  ---------------------------------------


    POTLOK:  cpu time    0.0333: real time    0.0337
    SETDIJ:  cpu time    0.0075: real time    0.0075
    EDDIAG:  cpu time    2.8781: real time    2.9026
  RMM-DIIS:  cpu time    3.5082: real time    3.5422
    ORTHCH:  cpu time    0.7256: real time    0.7321
       DOS:  cpu time    0.0093: real time    0.0094
    --------------------------------------------
      LOOP:  cpu time    7.1660: real time    7.2323

 eigenvalue-minimisations  : 14400
 total energy-change (2. order) : 0.2615823E+04  (-0.1179243E+05)
 number of electron     258.0000000 magnetization      42.0000000
 augmentation part      258.0000000 magnetization      42.0000000

 Free energy of the ion-electron system (eV)
  ---------------------------------------------------
  alpha Z        PSCENC =       763.51860341
  Ewald energy   TEWEN  =    -14120.91327613
  -Hartree energ DENC   =     -6970.31178112
  -exchange      EXHF   =         0.00000000
  -V(xc)+E(xc)   XCENC  =       850.73390749
  PAW double counting   =     17009.71267429   -17545.36899777
  entropy T*S    EENTRO =        -0.01191506
  eigenvalues    EBANDS =      2459.59244568
  atomic energy  EATOM  =     20168.87094289
  Solvation  Ediel_sol  =         0.00000000
  ---------------------------------------------------
  free energy    TOTEN  =      2615.82260368 eV

  energy without entropy =     2615.83451874  energy(sigma->0) =     2615.82856121


--------------------------------------------------------------------------------------------------------




----------------------------------------- Iteration    1(   2)  ---------------------------------------


    EDDIAG:  cpu time    2.8333: real time    2.8567
  RMM-DIIS:  cpu time    3.4998: real time    3.5321
    ORTHCH:  cpu time    0.7144: real time    0.7208
       DOS:  cpu time    0.0084: real time    0.0084
    --------------------------------------------
      LOOP:  cpu time    7.0737: real time    7.1471

 eigenvalue-minimisations  : 14400
 total energy-change (2. order) :-0.1971238E+04  (-0.2285135E+04)
 number of electron     258.0000000 magnetization      42.0000000
 augmentation part      258.0000000 magnetization      42.0000000

 Free energy of the ion-electron system (eV)
  ---------------------------------------------------
  alpha Z        PSCENC =       763.51860341
  Ewald energy   TEWEN  =    -14120.91327613
  -Hartree energ DENC   =     -6970.31178112
  -exchange      EXHF   =         0.00000000
  -V(xc)+E(xc)   XCENC  =       850.73390749
  PAW double counting   =     17009.71267429   -17545.36899777
  entropy T*S    EENTRO =        -0.00452014
  eigenvalues    EBANDS =       488.34748216
  atomic energy  EATOM  =     20168.87094289
  Solvation  Ediel_sol  =         0.00000000
  ---------------------------------------------------
  free energy    TOTEN  =       644.58503508 eV

  energy without entropy =      644.58955521  energy(sigma->0) =      644.58729515


--------------------------------------------------------------------------------------------------------




----------------------------------------- Iteration    1(   3)  ---------------------------------------


    EDDIAG:  cpu time    2.7325: real time    2.7543
  RMM-DIIS:  cpu time    3.4734: real time    3.5041
    ORTHCH:  cpu time    0.7167: real time    0.7229
       DOS:  cpu time    0.0089: real time    0.0090
    --------------------------------------------
      LOOP:  cpu time    6.9328: real time    7.0026

 eigenvalue-minimisations  : 14400
 total energy-change (2. order) :-0.5781390E+03  (-0.5498287E+03)
 number of electron     258.0000000 magnetization      42.0000000
 augmentation part      258.0000000 magnetization      42.0000000

 Free energy of the ion-electron system (eV)
  ---------------------------------------------------
  alpha Z        PSCENC =       763.51860341
  Ewald energy   TEWEN  =    -14120.91327613
  -Hartree energ DENC   =     -6970.31178112
  -exchange      EXHF   =         0.00000000
  -V(xc)+E(xc)   XCENC  =       850.73390749
  PAW double counting   =     17009.71267429   -17545.36899777
  entropy T*S    EENTRO =        -0.02290568
  eigenvalues    EBANDS =       -89.77312376
  atomic energy  EATOM  =     20168.87094289
  Solvation  Ediel_sol  =         0.00000000
  ---------------------------------------------------
  free energy    TOTEN  =        66.44604362 eV

  energy without entropy =       66.46894930  energy(sigma->0) =       66.45749646


--------------------------------------------------------------------------------------------------------




----------------------------------------- Iteration    1(   4)  ---------------------------------------


    EDDIAG:  cpu time    2.7105: real time    2.7316
  RMM-DIIS:  cpu time    3.4644: real time    3.4954
    ORTHCH:  cpu time    0.7088: real time    0.7154
       DOS:  cpu time    0.0093: real time    0.0094
    --------------------------------------------
      LOOP:  cpu time    6.8942: real time    6.9625

 eigenvalue-minimisations  : 14400
 total energy-change (2. order) :-0.2128247E+03  (-0.1755104E+03)
 number of electron     258.0000000 magnetization      42.0000000
 augmentation part      258.0000000 magnetization      42.0000000

 Free energy of the ion-electron system (eV)
  ---------------------------------------------------
  alpha Z        PSCENC =       763.51860341
  Ewald energy   TEWEN  =    -14120.91327613
  -Hartree energ DENC   =     -6970.31178112
  -exchange      EXHF   =         0.00000000
  -V(xc)+E(xc)   XCENC  =       850.73390749
  PAW double counting   =     17009.71267429   -17545.36899777
  entropy T*S    EENTRO =        -0.02967052
  eigenvalues    EBANDS =      -302.59110596
  atomic energy  EATOM  =     20168.87094289
  Solvation  Ediel_sol  =         0.00000000
  ---------------------------------------------------
  free energy    TOTEN  =      -146.37870342 eV

  energy without entropy =     -146.34903290  energy(sigma->0) =     -146.36386816


--------------------------------------------------------------------------------------------------------




----------------------------------------- Iteration    1(   5)  ---------------------------------------


    EDDIAG:  cpu time    2.6953: real time    2.7167
  RMM-DIIS:  cpu time    3.5253: real time    3.5602
    ORTHCH:  cpu time    0.7317: real time    0.7389
       DOS:  cpu time    0.0101: real time    0.0102
    --------------------------------------------
      LOOP:  cpu time    6.9636: real time    7.0384

 eigenvalue-minimisations  : 14400
 total energy-change (2. order) :-0.1035863E+03  (-0.6758103E+02)
 number of electron     258.0000000 magnetization      42.0000000
 augmentation part      258.0000000 magnetization      42.0000000

 Free energy of the ion-electron system (eV)
  ---------------------------------------------------
  alpha Z        PSCENC =       763.51860341
  Ewald energy   TEWEN  =    -14120.91327613
  -Hartree energ DENC   =     -6970.31178112
  -exchange      EXHF   =         0.00000000
  -V(xc)+E(xc)   XCENC  =       850.73390749
  PAW double counting   =     17009.71267429   -17545.36899777
  entropy T*S    EENTRO =        -0.05139881
  eigenvalues    EBANDS =      -406.15572253
  atomic energy  EATOM  =     20168.87094289
  Solvation  Ediel_sol  =         0.00000000
  ---------------------------------------------------
  free energy    TOTEN  =      -249.96504829 eV

  energy without entropy =     -249.91364948  energy(sigma->0) =     -249.93934888


--------------------------------------------------------------------------------------------------------




----------------------------------------- Iteration    1(   6)  ---------------------------------------


    EDDIAG:  cpu time    2.9531: real time    2.9791
  RMM-DIIS:  cpu time    3.5619: real time    3.5963
    ORTHCH:  cpu time    0.7303: real time    0.7368
       DOS:  cpu time    0.0098: real time    0.0099
    --------------------------------------------
      LOOP:  cpu time    7.2564: real time    7.3331

 eigenvalue-minimisations  : 14400
 total energy-change (2. order) :-0.2687657E+02  (-0.1786262E+02)
 number of electron     258.0000000 magnetization      42.0000000
 augmentation part      258.0000000 magnetization      42.0000000

 Free energy of the ion-electron system (eV)
  ---------------------------------------------------
  alpha Z        PSCENC =       763.51860341
  Ewald energy   TEWEN  =    -14120.91327613
  -Hartree energ DENC   =     -6970.31178112
  -exchange      EXHF   =         0.00000000
  -V(xc)+E(xc)   XCENC  =       850.73390749
  PAW double counting   =     17009.71267429   -17545.36899777
  entropy T*S    EENTRO =        -0.04198261
  eigenvalues    EBANDS =      -433.04170615
  atomic energy  EATOM  =     20168.87094289
  Solvation  Ediel_sol  =         0.00000000
  ---------------------------------------------------
  free energy    TOTEN  =      -276.84161571 eV

  energy without entropy =     -276.79963309  energy(sigma->0) =     -276.82062440


--------------------------------------------------------------------------------------------------------




----------------------------------------- Iteration    1(   7)  ---------------------------------------


    EDDIAG:  cpu time    2.8194: real time    2.8437
  RMM-DIIS:  cpu time    3.5583: real time    3.6042
    ORTHCH:  cpu time    0.7513: real time    0.7580
       DOS:  cpu time    0.0101: real time    0.0102
    --------------------------------------------
      LOOP:  cpu time    7.1407: real time    7.2288

 eigenvalue-minimisations  : 14400
 total energy-change (2. order) :-0.9729786E+01  (-0.7326588E+01)
 number of electron     258.0000000 magnetization      42.0000000
 augmentation part      258.0000000 magnetization      42.0000000

 Free energy of the ion-electron system (eV)
  ---------------------------------------------------
  alpha Z        PSCENC =       763.51860341
  Ewald energy   TEWEN  =    -14120.91327613
  -Hartree energ DENC   =     -6970.31178112
  -exchange      EXHF   =         0.00000000
  -V(xc)+E(xc)   XCENC  =       850.73390749
  PAW double counting   =     17009.71267429   -17545.36899777
  entropy T*S    EENTRO =        -0.04212023
  eigenvalues    EBANDS =      -442.77135440
  atomic energy  EATOM  =     20168.87094289
  Solvation  Ediel_sol  =         0.00000000
  ---------------------------------------------------
  free energy    TOTEN  =      -286.57140158 eV

  energy without entropy =     -286.52928135  energy(sigma->0) =     -286.55034146


--------------------------------------------------------------------------------------------------------




----------------------------------------- Iteration    1(   8)  ---------------------------------------


    EDDIAG:  cpu time    2.8717: real time    2.8963
  RMM-DIIS:  cpu time    3.5310: real time    3.5636
    ORTHCH:  cpu time    0.7491: real time    0.7559
       DOS:  cpu time    0.0105: real time    0.0106
    --------------------------------------------
      LOOP:  cpu time    7.1636: real time    7.2383

 eigenvalue-minimisations  : 14400
 total energy-change (2. order) :-0.2183466E+01  (-0.1513153E+01)
 number of electron     258.0000000 magnetization      42.0000000
 augmentation part      258.0000000 magnetization      42.0000000

 Free energy of the ion-electron system (eV)
  ---------------------------------------------------
  alpha Z        PSCENC =       763.51860341
  Ewald energy   TEWEN  =    -14120.91327613
  -Hartree energ DENC   =     -6970.31178112
  -exchange      EXHF   =         0.00000000
  -V(xc)+E(xc)   XCENC  =       850.73390749
  PAW double counting   =     17009.71267429   -17545.36899777
  entropy T*S    EENTRO =        -0.04105213
  eigenvalues    EBANDS =      -444.95588863
  atomic energy  EATOM  =     20168.87094289
  Solvation  Ediel_sol  =         0.00000000
  ---------------------------------------------------
  free energy    TOTEN  =      -288.75486770 eV

  energy without entropy =     -288.71381557  energy(sigma->0) =     -288.73434164


--------------------------------------------------------------------------------------------------------




----------------------------------------- Iteration    1(   9)  ---------------------------------------


    EDDIAG:  cpu time    2.9383: real time    2.9632
  RMM-DIIS:  cpu time    8.8156: real time    8.9066
    ORTHCH:  cpu time    0.7337: real time    0.7409
       DOS:  cpu time    0.0099: real time    0.0099
    --------------------------------------------
      LOOP:  cpu time   12.4988: real time   12.6327

 eigenvalue-minimisations  : 38298
 total energy-change (2. order) :-0.1085677E+01  (-0.9244384E+00)
 number of electron     258.0000000 magnetization      42.0000000
 augmentation part      258.0000000 magnetization      42.0000000

 Free energy of the ion-electron system (eV)
  ---------------------------------------------------
  alpha Z        PSCENC =       763.51860341
  Ewald energy   TEWEN  =    -14120.91327613
  -Hartree energ DENC   =     -6970.31178112
  -exchange      EXHF   =         0.00000000
  -V(xc)+E(xc)   XCENC  =       850.73390749
  PAW double counting   =     17009.71267429   -17545.36899777
  entropy T*S    EENTRO =        -0.04047527
  eigenvalues    EBANDS =      -446.04214247
  atomic energy  EATOM  =     20168.87094289
  Solvation  Ediel_sol  =         0.00000000
  ---------------------------------------------------
  free energy    TOTEN  =      -289.84054468 eV

  energy without entropy =     -289.80006941  energy(sigma->0) =     -289.82030704


--------------------------------------------------------------------------------------------------------




----------------------------------------- Iteration    1(  10)  ---------------------------------------


    EDDIAG:  cpu time    2.8205: real time    2.8434
  RMM-DIIS:  cpu time    9.0549: real time    9.1435
    ORTHCH:  cpu time    0.7312: real time    0.7378
       DOS:  cpu time    0.0096: real time    0.0097
    --------------------------------------------
      LOOP:  cpu time   12.6178: real time   12.7461

 eigenvalue-minimisations  : 39036
 total energy-change (2. order) : 0.1568650E-01  (-0.3218153E-01)
 number of electron     258.0000000 magnetization      42.0000000
 augmentation part      258.0000000 magnetization      42.0000000

 Free energy of the ion-electron system (eV)
  ---------------------------------------------------
  alpha Z        PSCENC =       763.51860341
  Ewald energy   TEWEN  =    -14120.91327613
  -Hartree energ DENC   =     -6970.31178112
  -exchange      EXHF   =         0.00000000
  -V(xc)+E(xc)   XCENC  =       850.73390749
  PAW double counting   =     17009.71267429   -17545.36899777
  entropy T*S    EENTRO =        -0.04058288
  eigenvalues    EBANDS =      -446.02634835
  atomic energy  EATOM  =     20168.87094289
  Solvation  Ediel_sol  =         0.00000000
  ---------------------------------------------------
  free energy    TOTEN  =      -289.82485818 eV

  energy without entropy =     -289.78427530  energy(sigma->0) =     -289.80456674


--------------------------------------------------------------------------------------------------------




----------------------------------------- Iteration    1(  11)  ---------------------------------------


    EDDIAG:  cpu time    2.8228: real time    2.8475
  RMM-DIIS:  cpu time    9.4478: real time    9.5438
    ORTHCH:  cpu time    0.7360: real time    0.7436
       DOS:  cpu time    0.0102: real time    0.0102
    --------------------------------------------
      LOOP:  cpu time   13.0183: real time   13.1708

 eigenvalue-minimisations  : 40694
 total energy-change (2. order) :-0.2027408E-02  (-0.3346940E-02)
 number of electron     258.0000000 magnetization      42.0000000
 augmentation part      258.0000000 magnetization      42.0000000

 Free energy of the ion-electron system (eV)
  ---------------------------------------------------
  alpha Z        PSCENC =       763.51860341
  Ewald energy   TEWEN  =    -14120.91327613
  -Hartree energ DENC   =     -6970.31178112
  -exchange      EXHF   =         0.00000000
  -V(xc)+E(xc)   XCENC  =       850.73390749
  PAW double counting   =     17009.71267429   -17545.36899777
  entropy T*S    EENTRO =        -0.04059082
  eigenvalues    EBANDS =      -446.02836783
  atomic energy  EATOM  =     20168.87094289
  Solvation  Ediel_sol  =         0.00000000
  ---------------------------------------------------
  free energy    TOTEN  =      -289.82688559 eV

  energy without entropy =     -289.78629477  energy(sigma->0) =     -289.80659018


--------------------------------------------------------------------------------------------------------




----------------------------------------- Iteration    1(  12)  ---------------------------------------


    EDDIAG:  cpu time    2.8778: real time    2.9127
  RMM-DIIS:  cpu time    9.3378: real time    9.4357
    ORTHCH:  cpu time    0.7317: real time    0.7386
       DOS:  cpu time    0.0100: real time    0.0101
    CHARGE:  cpu time    0.3766: real time    0.3793
    MIXING:  cpu time    0.0007: real time    0.0007
    --------------------------------------------
      LOOP:  cpu time   13.3360: real time   13.4882

 eigenvalue-minimisations  : 39844
 total energy-change (2. order) :-0.1226649E-03  (-0.1369640E-03)
 number of electron     258.0000141 magnetization      34.4938518
 augmentation part       67.6630668 magnetization      30.7903108

 Broyden mixing:
  rms(total) = 0.96938E+01    rms(broyden)= 0.96936E+01
  rms(prec ) = 0.10512E+02
  weight for this iteration     100.00

 Free energy of the ion-electron system (eV)
  ---------------------------------------------------
  alpha Z        PSCENC =       763.51860341
  Ewald energy   TEWEN  =    -14120.91327613
  -Hartree energ DENC   =     -6970.31178112
  -exchange      EXHF   =         0.00000000
  -V(xc)+E(xc)   XCENC  =       850.73390749
  PAW double counting   =     17009.71267429   -17545.36899777
  entropy T*S    EENTRO =        -0.04059078
  eigenvalues    EBANDS =      -446.02849053
  atomic energy  EATOM  =     20168.87094289
  Solvation  Ediel_sol  =         0.00000000
  ---------------------------------------------------
  free energy    TOTEN  =      -289.82700825 eV

  energy without entropy =     -289.78641747  energy(sigma->0) =     -289.80671286


--------------------------------------------------------------------------------------------------------




----------------------------------------- Iteration    1(  13)  ---------------------------------------


    POTLOK:  cpu time    0.0274: real time    0.0276
    SETDIJ:  cpu time    0.0060: real time    0.0061
    EDDIAG:  cpu time    2.8303: real time    2.8533
  RMM-DIIS:  cpu time    7.4144: real time    7.4899
    ORTHCH:  cpu time    0.7414: real time    0.7480
       DOS:  cpu time    0.0094: real time    0.0095
    CHARGE:  cpu time    0.3648: real time    0.3675
    MIXING:  cpu time    0.0007: real time    0.0007
    --------------------------------------------
      LOOP:  cpu time   11.3960: real time   11.5135

 eigenvalue-minimisations  : 32059
 total energy-change (2. order) :-0.5107595E+02  (-0.9068489E+02)
 number of electron     258.0000072 magnetization      32.4266908
 augmentation part       94.7252986 magnetization      28.3676611

 Broyden mixing:
  rms(total) = 0.16417E+02    rms(broyden)= 0.16416E+02
  rms(prec ) = 0.17465E+02
  weight for this iteration     100.00

 eigenvalues of (default mixing * dielectric matrix)
  average eigenvalue GAMMA=   0.2696
  0.2696

 Free energy of the ion-electron system (eV)
  ---------------------------------------------------
  alpha Z        PSCENC =       763.51860341
  Ewald energy   TEWEN  =    -14120.91327613
  -Hartree energ DENC   =     -6827.45869092
  -exchange      EXHF   =         0.00000000
  -V(xc)+E(xc)   XCENC  =       872.61303578
  PAW double counting   =     19416.41823417   -19832.45855696
  entropy T*S    EENTRO =        -0.01306130
  eigenvalues    EBANDS =      -781.48019374
  atomic energy  EATOM  =     20168.87094289
  Solvation  Ediel_sol  =         0.00000000
  ---------------------------------------------------
  free energy    TOTEN  =      -340.90296281 eV

  energy without entropy =     -340.88990150  energy(sigma->0) =     -340.89643216


--------------------------------------------------------------------------------------------------------




----------------------------------------- Iteration    1(  14)  ---------------------------------------


    POTLOK:  cpu time    0.0271: real time    0.0273
    SETDIJ:  cpu time    0.0059: real time    0.0060
    EDDIAG:  cpu time    2.8247: real time    2.8479
  RMM-DIIS:  cpu time    6.5965: real time    6.6635
    ORTHCH:  cpu time    0.7322: real time    0.7384
       DOS:  cpu time    0.0096: real time    0.0097
    CHARGE:  cpu time    0.3613: real time    0.3640
    MIXING:  cpu time    0.0007: real time    0.0007
    --------------------------------------------
      LOOP:  cpu time   10.5595: real time   10.6696

 eigenvalue-minimisations  : 28800
 total energy-change (2. order) : 0.1254271E+03  (-0.1170849E+02)
 number of electron     258.0000108 magnetization      26.7738260
 augmentation part       78.8635251 magnetization      24.4034413

 Broyden mixing:
  rms(total) = 0.44790E+01    rms(broyden)= 0.44788E+01
  rms(prec ) = 0.49687E+01
  weight for this iteration     100.00

 eigenvalues of (default mixing * dielectric matrix)
  average eigenvalue GAMMA=   0.5347
  0.7061  0.3634

 Free energy of the ion-electron system (eV)
  ---------------------------------------------------
  alpha Z        PSCENC =       763.51860341
  Ewald energy   TEWEN  =    -14120.91327613
  -Hartree energ DENC   =     -6935.24670639
  -exchange      EXHF   =         0.00000000
  -V(xc)+E(xc)   XCENC  =       869.43608661
  PAW double counting   =     20317.69618522   -20815.44271933
  entropy T*S    EENTRO =        -0.00663623
  eigenvalues    EBANDS =      -463.38836758
  atomic energy  EATOM  =     20168.87094289
  Solvation  Ediel_sol  =         0.00000000
  ---------------------------------------------------
  free energy    TOTEN  =      -215.47588752 eV

  energy without entropy =     -215.46925129  energy(sigma->0) =     -215.47256941


--------------------------------------------------------------------------------------------------------




----------------------------------------- Iteration    1(  15)  ---------------------------------------


    POTLOK:  cpu time    0.0269: real time    0.0271
    SETDIJ:  cpu time    0.0060: real time    0.0060
    EDDIAG:  cpu time    2.8736: real time    2.8984
  RMM-DIIS:  cpu time    6.6397: real time    6.7059
    ORTHCH:  cpu time    0.7380: real time    0.7441
       DOS:  cpu time    0.0104: real time    0.0105
    CHARGE:  cpu time    0.3713: real time    0.3740
    MIXING:  cpu time    0.0007: real time    0.0007
    --------------------------------------------
      LOOP:  cpu time   10.6682: real time   10.7782

 eigenvalue-minimisations  : 28839
 total energy-change (2. order) :-0.4608394E+02  (-0.8211900E+01)
 number of electron     258.0000126 magnetization      25.1134784
 augmentation part       75.1754063 magnetization      21.3559615

 Broyden mixing:
  rms(total) = 0.11457E+02    rms(broyden)= 0.11456E+02
  rms(prec ) = 0.12904E+02
  weight for this iteration     100.00

 eigenvalues of (default mixing * dielectric matrix)
  average eigenvalue GAMMA=   0.4543
  0.8667  0.3346  0.1616

 Free energy of the ion-electron system (eV)
  ---------------------------------------------------
  alpha Z        PSCENC =       763.51860341
  Ewald energy   TEWEN  =    -14120.91327613
  -Hartree energ DENC   =     -6943.12479440
  -exchange      EXHF   =         0.00000000
  -V(xc)+E(xc)   XCENC  =       869.32879668
  PAW double counting   =     21398.06688530   -21913.20315267
  entropy T*S    EENTRO =        -0.01585663
  eigenvalues    EBANDS =      -484.08797481
  atomic energy  EATOM  =     20168.87094289
  Solvation  Ediel_sol  =         0.00000000
  ---------------------------------------------------
  free energy    TOTEN  =      -261.55982635 eV

  energy without entropy =     -261.54396972  energy(sigma->0) =     -261.55189803


--------------------------------------------------------------------------------------------------------




----------------------------------------- Iteration    1(  16)  ---------------------------------------


    POTLOK:  cpu time    0.0280: real time    0.0282
    SETDIJ:  cpu time    0.0061: real time    0.0062
    EDDIAG:  cpu time    2.8788: real time    2.9029
  RMM-DIIS:  cpu time    6.5952: real time    6.6618
    ORTHCH:  cpu time    0.7354: real time    0.7424
       DOS:  cpu time    0.0094: real time    0.0095
    CHARGE:  cpu time    0.3787: real time    0.3819
    MIXING:  cpu time    0.0009: real time    0.0009
    --------------------------------------------
      LOOP:  cpu time   10.6340: real time   10.7448

 eigenvalue-minimisations  : 28808
 total energy-change (2. order) : 0.3283368E+02  (-0.1457160E+01)
 number of electron     258.0000109 magnetization      24.2841918
 augmentation part       75.3977857 magnetization      20.7159460

 Broyden mixing:
  rms(total) = 0.79677E+01    rms(broyden)= 0.79677E+01
  rms(prec ) = 0.91015E+01
  weight for this iteration     100.00

 eigenvalues of (default mixing * dielectric matrix)
  average eigenvalue GAMMA=   0.4154
  0.9120  0.3448  0.2023  0.2023

 Free energy of the ion-electron system (eV)
  ---------------------------------------------------
  alpha Z        PSCENC =       763.51860341
  Ewald energy   TEWEN  =    -14120.91327613
  -Hartree energ DENC   =     -6946.94897753
  -exchange      EXHF   =         0.00000000
  -V(xc)+E(xc)   XCENC  =       867.37669752
  PAW double counting   =     21819.16326071   -22342.28438583
  entropy T*S    EENTRO =        -0.00717801
  eigenvalues    EBANDS =      -437.50183587
  atomic energy  EATOM  =     20168.87094289
  Solvation  Ediel_sol  =         0.00000000
  ---------------------------------------------------
  free energy    TOTEN  =      -228.72614884 eV

  energy without entropy =     -228.71897082  energy(sigma->0) =     -228.72255983


--------------------------------------------------------------------------------------------------------




----------------------------------------- Iteration    1(  17)  ---------------------------------------


    POTLOK:  cpu time    0.0270: real time    0.0273
    SETDIJ:  cpu time    0.0062: real time    0.0063
    EDDIAG:  cpu time    2.8086: real time    2.8327
  RMM-DIIS:  cpu time    6.6263: real time    6.6989
    ORTHCH:  cpu time    0.7341: real time    0.7410
       DOS:  cpu time    0.0093: real time    0.0094
    CHARGE:  cpu time    0.3640: real time    0.3667
    MIXING:  cpu time    0.0008: real time    0.0008
    --------------------------------------------
      LOOP:  cpu time   10.5779: real time   10.6945

 eigenvalue-minimisations  : 28804
 total energy-change (2. order) : 0.2374064E+01  (-0.1855623E+01)
 number of electron     258.0000142 magnetization      22.2859872
 augmentation part       75.4755755 magnetization      18.3815278

 Broyden mixing:
  rms(total) = 0.75291E+01    rms(broyden)= 0.75290E+01
  rms(prec ) = 0.99004E+01
  weight for this iteration     100.00

 eigenvalues of (default mixing * dielectric matrix)
  average eigenvalue GAMMA=   0.3971
  0.9825  0.3970  0.2602  0.2602  0.0855

 Free energy of the ion-electron system (eV)
  ---------------------------------------------------
  alpha Z        PSCENC =       763.51860341
  Ewald energy   TEWEN  =    -14120.91327613
  -Hartree energ DENC   =     -6950.79707287
  -exchange      EXHF   =         0.00000000
  -V(xc)+E(xc)   XCENC  =       866.47972025
  PAW double counting   =     21990.98223429   -22517.32346131
  entropy T*S    EENTRO =        -0.00789906
  eigenvalues    EBANDS =      -427.16187596
  atomic energy  EATOM  =     20168.87094289
  Solvation  Ediel_sol  =         0.00000000
  ---------------------------------------------------
  free energy    TOTEN  =      -226.35208449 eV

  energy without entropy =     -226.34418543  energy(sigma->0) =     -226.34813496


--------------------------------------------------------------------------------------------------------




----------------------------------------- Iteration    1(  18)  ---------------------------------------


    POTLOK:  cpu time    0.0270: real time    0.0272
    SETDIJ:  cpu time    0.0061: real time    0.0061
    EDDIAG:  cpu time    2.8140: real time    2.8387
  RMM-DIIS:  cpu time    6.6650: real time    6.7347
    ORTHCH:  cpu time    0.7441: real time    0.7505
       DOS:  cpu time    0.0096: real time    0.0096
    CHARGE:  cpu time    0.3664: real time    0.3690
    MIXING:  cpu time    0.0009: real time    0.0009
    --------------------------------------------
      LOOP:  cpu time   10.6342: real time   10.7490

 eigenvalue-minimisations  : 28800
 total energy-change (2. order) :-0.6301789E+00  (-0.9989641E+00)
 number of electron     258.0000100 magnetization      20.5263546
 augmentation part       76.3955840 magnetization      17.3390574

 Broyden mixing:
  rms(total) = 0.50937E+01    rms(broyden)= 0.50936E+01
  rms(prec ) = 0.62738E+01
  weight for this iteration     100.00

 eigenvalues of (default mixing * dielectric matrix)
  average eigenvalue GAMMA=   0.4107
  1.1584  0.4820  0.2603  0.2350  0.2350  0.0935

 Free energy of the ion-electron system (eV)
  ---------------------------------------------------
  alpha Z        PSCENC =       763.51860341
  Ewald energy   TEWEN  =    -14120.91327613
  -Hartree energ DENC   =     -6949.86040869
  -exchange      EXHF   =         0.00000000
  -V(xc)+E(xc)   XCENC  =       864.77471348
  PAW double counting   =     22344.90246230   -22871.41717838
  entropy T*S    EENTRO =        -0.00776825
  eigenvalues    EBANDS =      -426.85035406
  atomic energy  EATOM  =     20168.87094289
  Solvation  Ediel_sol  =         0.00000000
  ---------------------------------------------------
  free energy    TOTEN  =      -226.98226343 eV

  energy without entropy =     -226.97449518  energy(sigma->0) =     -226.97837930


--------------------------------------------------------------------------------------------------------




----------------------------------------- Iteration    1(  19)  ---------------------------------------


    POTLOK:  cpu time    0.0275: real time    0.0277
    SETDIJ:  cpu time    0.0061: real time    0.0061
    EDDIAG:  cpu time    2.8182: real time    2.8417
  RMM-DIIS:  cpu time    6.6156: real time    6.6825
    ORTHCH:  cpu time    0.7343: real time    0.7409
       DOS:  cpu time    0.0095: real time    0.0095
    CHARGE:  cpu time    0.3632: real time    0.3658
    MIXING:  cpu time    0.0009: real time    0.0009
    --------------------------------------------
      LOOP:  cpu time   10.5767: real time   10.6859

 eigenvalue-minimisations  : 28802
 total energy-change (2. order) : 0.4696019E+01  (-0.1297858E+01)
 number of electron     258.0000117 magnetization      17.4639839
 augmentation part       76.6194233 magnetization      14.8274341

 Broyden mixing:
  rms(total) = 0.28521E+01    rms(broyden)= 0.28521E+01
  rms(prec ) = 0.32111E+01
  weight for this iteration     100.00

 eigenvalues of (default mixing * dielectric matrix)
  average eigenvalue GAMMA=   0.4410
  1.3770  0.6798  0.2362  0.2362  0.2739  0.1941  0.0898

 Free energy of the ion-electron system (eV)
  ---------------------------------------------------
  alpha Z        PSCENC =       763.51860341
  Ewald energy   TEWEN  =    -14120.91327613
  -Hartree energ DENC   =     -6951.98715215
  -exchange      EXHF   =         0.00000000
  -V(xc)+E(xc)   XCENC  =       863.36493371
  PAW double counting   =     22691.93173585   -23221.97438699
  entropy T*S    EENTRO =        -0.00521133
  eigenvalues    EBANDS =      -415.09243325
  atomic energy  EATOM  =     20168.87094289
  Solvation  Ediel_sol  =         0.00000000
  ---------------------------------------------------
  free energy    TOTEN  =      -222.28624399 eV

  energy without entropy =     -222.28103266  energy(sigma->0) =     -222.28363833


--------------------------------------------------------------------------------------------------------




----------------------------------------- Iteration    1(  20)  ---------------------------------------


    POTLOK:  cpu time    0.0268: real time    0.0270
    SETDIJ:  cpu time    0.0060: real time    0.0063
    EDDIAG:  cpu time    2.8187: real time    2.8417
  RMM-DIIS:  cpu time    6.6258: real time    6.6905
    ORTHCH:  cpu time    0.7376: real time    0.7557
       DOS:  cpu time    0.0089: real time    0.0090
    CHARGE:  cpu time    0.3608: real time    0.3633
    MIXING:  cpu time    0.0010: real time    0.0010
    --------------------------------------------
      LOOP:  cpu time   10.5870: real time   10.7068

 eigenvalue-minimisations  : 28800
 total energy-change (2. order) :-0.4898824E+01  (-0.7730361E+00)
[...]
  0.671   0.048  -0.117  -4.927  -0.000   0.680   0.047  -0.118
  0.014   0.671   0.085  -0.000  -4.693   0.014   0.680   0.086
 -5.204   0.001   0.149   0.680   0.014  -5.678   0.001   0.153
  0.001  -5.493  -0.064   0.047   0.680   0.001  -5.954  -0.065
  0.149  -0.064  -3.408  -0.118   0.086   0.153  -0.065  -3.851
  0.680   0.047  -0.118  -5.438  -0.000   0.697   0.046  -0.120
  0.014   0.680   0.086  -0.000  -5.215   0.015   0.697   0.088
 -0.004   0.000   0.006   0.001  -0.002  -0.003   0.000   0.004
 -0.006   0.000   0.009   0.002  -0.003  -0.006   0.001   0.005
 -0.000  -0.000  -0.000  -0.000  -0.000  -0.000  -0.000  -0.000
 -0.000  -0.000  -0.000  -0.000   0.000  -0.000  -0.000  -0.000
  0.000  -0.000   0.000  -0.000  -0.000   0.000  -0.000   0.000
 -0.000  -0.000  -0.000  -0.000  -0.000  -0.000  -0.000  -0.000
 -0.000   0.000  -0.000  -0.000   0.000  -0.000   0.000  -0.000
  0.000  -0.000   0.000  -0.000  -0.000   0.000  -0.000   0.000
 total augmentation occupancy for first ion, spin component:           1
  6.622  -0.047  -0.149  -2.586  -0.203  -5.140   0.011   0.061   0.880   0.161   0.138  -0.011   0.001   0.000  -0.001  -0.000
 -0.047   6.368   0.179  -0.179  -2.536   0.033  -5.158  -0.127   0.153   0.662  -0.009   0.014  -0.001  -0.000  -0.001  -0.000
 -0.149   0.179   5.790   0.305  -0.078   0.057  -0.140  -4.077  -0.235   0.027   0.434  -0.054   0.000   0.001  -0.000  -0.000
 -2.586  -0.179   0.305   6.167  -0.042   0.701   0.153  -0.213  -4.991   0.032  -0.024   0.024  -0.000   0.000  -0.001  -0.000
 -0.203  -2.536  -0.078  -0.042   6.836   0.161   0.865   0.029   0.010  -5.314   0.075  -0.005  -0.001   0.000  -0.000   0.000
 -5.140   0.033   0.057   0.701   0.161   5.277  -0.002  -0.023   0.515  -0.131  -0.110   0.005  -0.001  -0.000   0.001   0.000
  0.011  -5.158  -0.140   0.153   0.865  -0.002   5.504   0.110  -0.137   0.523   0.015  -0.011   0.001   0.000   0.000  -0.000
  0.061  -0.127  -4.077  -0.213   0.029  -0.023   0.110   3.586   0.185  -0.009  -0.533   0.110  -0.000  -0.001   0.001   0.000
  0.880   0.153  -0.235  -4.991   0.010   0.515  -0.137   0.185   5.359  -0.004   0.032  -0.019  -0.000  -0.001   0.002   0.000
  0.161   0.662   0.027   0.032  -5.314  -0.131   0.523  -0.009  -0.004   5.421  -0.059   0.002   0.001   0.000  -0.000  -0.000
  0.138  -0.009   0.434  -0.024   0.075  -0.110   0.015  -0.533   0.032  -0.059   2.722  -0.505   0.001   0.001  -0.001  -0.000
 -0.011   0.014  -0.054   0.024  -0.005   0.005  -0.011   0.110  -0.019   0.002  -0.505   0.141  -0.000  -0.000   0.000   0.000
  0.001  -0.001   0.000  -0.000  -0.001  -0.001   0.001  -0.000  -0.000   0.001   0.001  -0.000   0.543   0.003  -0.002  -0.085
  0.000  -0.000   0.001   0.000   0.000  -0.000   0.000  -0.001  -0.001   0.000   0.001  -0.000   0.003   0.447   0.005  -0.000
 -0.001  -0.001  -0.000  -0.001  -0.000   0.001   0.000   0.001   0.002  -0.000  -0.001   0.000  -0.002   0.005   0.542   0.001
 -0.000  -0.000  -0.000  -0.000   0.000   0.000  -0.000   0.000   0.000  -0.000  -0.000   0.000  -0.085  -0.000   0.001   0.018
 -0.000  -0.000  -0.000  -0.000   0.000   0.000  -0.000   0.000   0.000  -0.000  -0.000   0.000  -0.000  -0.064  -0.001   0.000
  0.000  -0.000   0.000   0.000  -0.000  -0.000   0.000  -0.000  -0.000   0.000   0.000  -0.000   0.001  -0.001  -0.084  -0.000
 total augmentation occupancy for first ion, spin component:           2
  0.542  -0.078   0.303  -0.172  -0.078  -0.244   0.062  -0.165   0.253   0.067   0.016  -0.001  -0.000  -0.000   0.000   0.000
 -0.078   0.136  -0.061  -0.039  -0.087   0.057   0.091   0.028   0.029   0.236   0.006   0.005  -0.000   0.000  -0.001  -0.000
  0.303  -0.061   4.957  -0.128   0.173  -0.191   0.024  -3.006   0.058  -0.109  -0.036   0.071  -0.000   0.000  -0.000  -0.000
 -0.172  -0.039  -0.128   0.096  -0.075   0.297   0.029   0.065   0.122   0.054   0.009   0.008  -0.000  -0.001   0.000   0.000
 -0.078  -0.087   0.173  -0.075   0.634   0.066   0.186  -0.094   0.059  -0.321   0.010  -0.000  -0.000   0.000  -0.000   0.000
 -0.244   0.057  -0.191   0.297   0.066   0.037  -0.045   0.114  -0.309  -0.056  -0.011  -0.004   0.000   0.000  -0.000  -0.000
  0.062   0.091   0.024   0.029   0.186  -0.045  -0.252  -0.009  -0.020  -0.261  -0.006  -0.005   0.000  -0.000   0.001   0.000
 -0.165   0.028  -3.006   0.065  -0.094   0.114  -0.009   1.926  -0.028   0.065   0.010  -0.034   0.000  -0.000   0.000   0.000
  0.253   0.029   0.058   0.122   0.059  -0.309  -0.020  -0.028  -0.274  -0.043  -0.009  -0.008   0.000   0.000  -0.000  -0.000
  0.067   0.236  -0.109   0.054  -0.321  -0.056  -0.261   0.065  -0.043   0.101  -0.007  -0.002   0.000  -0.000   0.000  -0.000
  0.016   0.006  -0.036   0.009   0.010  -0.011  -0.006   0.010  -0.009  -0.007  -0.114   0.050  -0.000  -0.000   0.000   0.000
 -0.001   0.005   0.071   0.008  -0.000  -0.004  -0.005  -0.034  -0.008  -0.002   0.050  -0.008   0.000   0.000  -0.000  -0.000
 -0.000  -0.000  -0.000  -0.000  -0.000   0.000   0.000   0.000   0.000   0.000  -0.000   0.000  -0.001  -0.000  -0.002   0.004
 -0.000   0.000   0.000  -0.001   0.000   0.000  -0.000  -0.000   0.000  -0.000  -0.000   0.000  -0.000  -0.000  -0.000  -0.000
  0.000  -0.001  -0.000   0.000  -0.000  -0.000   0.001   0.000  -0.000   0.000   0.000  -0.000  -0.002  -0.000  -0.003  -0.000
  0.000  -0.000  -0.000   0.000   0.000  -0.000   0.000   0.000  -0.000  -0.000   0.000  -0.000   0.004  -0.000  -0.000  -0.001
 -0.000  -0.000  -0.000   0.000  -0.000   0.000   0.000   0.000  -0.000   0.000   0.000  -0.000  -0.000   0.003  -0.000   0.000
 -0.000  -0.000   0.000  -0.000   0.000   0.000  -0.000  -0.000   0.000  -0.000  -0.000   0.000  -0.000  -0.000   0.004   0.000


------------------------ aborting loop because EDIFF is reached ----------------------------------------


    CHARGE:  cpu time    0.3467: real time    0.3488
    FORLOC:  cpu time    0.0027: real time    0.0027
    FORNL :  cpu time    1.9646: real time    1.9784
    STRESS:  cpu time    5.9835: real time    6.0267
    FORCOR:  cpu time    0.0287: real time    0.0289
    FORHAR:  cpu time    0.0051: real time    0.0052
    MIXING:  cpu time    0.0046: real time    0.0046
    OFIELD:  cpu time    0.0000: real time    0.0000

 ---------------------------------------------------------------------------------------------

         DFTD3 V3.0 Rev 1        
 IVDW         = 12
 DF pbe       
 parameters
 VDW_S6       =    1.0000
 VDW_S8       =    0.7875
 VDW_A1       =    0.4289
 VDW_A2       =    4.4407
 k1-k3        =   16.0000    1.3333   -4.0000
 VDW_RADIUS   =   50.2022 A
 VDW_CNRADIUS =   21.1671 A
 Edisp (eV)   -7.80623

 E6    (eV) :    -4.9843
 E8    (eV) :    -2.8219
 % E8        : 36.15
    FORVDW:  cpu time    0.3980: real time    0.4030

  FORCE on cell =-STRESS in cart. coord.  units (eV):
  Direction    XX          YY          ZZ          XY          YZ          ZX
  --------------------------------------------------------------------------------------
  Alpha Z   763.51860   763.51860   763.51860
  Ewald   -1706.53408 -1707.36590-10707.08172    13.70011   -25.45336   -20.03738
  Hartree  4528.90597  4525.15231 -2134.20664     5.96920   -25.84499   -38.66379
  E(xc)   -1285.51006 -1285.33100 -1286.84315    -0.01689    -0.05782     0.05213
  Local   -7794.20218 -7781.73282  7830.57117   -19.13782    50.45316    64.35641
  n-local  -588.51612  -589.19955  -598.56778     2.19614     0.60966     2.35129
  augment  2022.34469  2018.58993  2001.36588    -1.79821     0.52630    -3.22422
  Kinetic  4069.43158  4064.27419  4140.60961     0.51976     0.61391    -3.34115
  Fock        0.00000     0.00000     0.00000     0.00000     0.00000     0.00000
  vdW        -8.16462    -8.11749    -8.17042    -0.04194     0.00092     0.00027
  -------------------------------------------------------------------------------------
  Total       1.27379    -0.21172     1.19553     1.39035     0.84776     1.49356
  in kB       5.31512    -0.88345     4.98859     5.80149     3.53745     6.23216
  external pressure =        3.14 kB  Pullay stress =        0.00 kB


 VOLUME and BASIS-vectors are now :
 -----------------------------------------------------------------------------
  energy-cutoff  :      600.00
  volume of cell :      383.97
      direct lattice vectors                 reciprocal lattice vectors
     5.581598347 -0.030839130 -0.050517864     0.179752625  0.104040042  0.001948865
    -2.820064286  4.872290674  0.000325471     0.001144426  0.205904610  0.000748348
    -0.124183780 -0.050794065 14.165667153     0.000641011  0.000366299  0.070600149

  length of vectors
     5.581912147  5.629562958 14.166302536     0.207699626  0.205909150  0.070604009


 FORCES acting on ions
    electron-ion (+dipol)            ewald-force                    non-local-force                 convergence-correction
 -----------------------------------------------------------------------------------------------
   -.730E+00 0.378E+00 -.139E+01   0.719E+00 -.366E+00 0.144E+01   -.934E-02 0.896E-02 -.257E-01   0.673E-03 -.113E-02 -.233E-02
   0.838E+01 0.374E+01 0.335E+02   -.889E+01 -.414E+01 -.336E+02   0.511E+00 0.411E+00 0.114E+00   0.439E-03 -.937E-03 0.162E-02
   -.752E+01 -.379E+01 -.337E+02   0.810E+01 0.413E+01 0.341E+02   -.555E+00 -.310E+00 -.226E+00   0.153E-03 0.313E-03 0.672E-03
   -.436E+00 -.104E+01 -.167E+01   0.437E+00 0.101E+01 0.167E+01   -.806E-02 0.558E-02 0.919E-03   -.545E-03 0.121E-02 -.219E-02
   0.708E+01 0.465E+01 0.382E+02   -.761E+01 -.481E+01 -.384E+02   0.527E+00 0.152E+00 0.180E+00   -.112E-02 0.601E-03 0.142E-02
   -.746E+01 -.500E+01 -.341E+02   0.805E+01 0.532E+01 0.345E+02   -.558E+00 -.317E+00 -.206E+00   0.713E-03 0.178E-03 0.920E-03
   0.754E+00 0.116E+01 -.259E+01   -.767E+00 -.116E+01 0.258E+01   -.347E-02 -.182E-02 -.180E-02   -.741E-03 -.543E-03 -.261E-02
   -.851E+01 -.397E+01 -.425E+02   0.903E+01 0.438E+01 0.425E+02   -.511E+00 -.405E+00 -.980E-01   -.365E-03 0.329E-03 0.109E-02
   0.802E+01 0.547E+01 0.463E+02   -.854E+01 -.577E+01 -.462E+02   0.520E+00 0.289E+00 0.126E+00   -.162E-03 -.492E-03 0.112E-02
   0.364E+00 -.531E+00 -.789E+00   -.330E+00 0.539E+00 0.715E+00   -.268E-01 0.173E-02 0.882E-01   0.485E-03 0.395E-03 -.191E-02
   -.712E+01 -.489E+01 -.464E+02   0.765E+01 0.506E+01 0.465E+02   -.537E+00 -.159E+00 -.163E+00   0.117E-02 0.104E-03 0.165E-02
   0.800E+01 0.397E+01 0.478E+02   -.847E+01 -.425E+01 -.478E+02   0.494E+00 0.289E+00 0.190E+00   -.733E-03 -.437E-04 0.895E-03
   -.292E+00 -.281E+00 0.329E+03   0.341E+01 0.212E+01 -.350E+03   -.379E+01 -.224E+01 0.212E+02   0.895E-03 -.103E-02 0.505E-03
   0.858E-01 -.209E+00 -.331E+03   -.325E+01 -.162E+01 0.352E+03   0.382E+01 0.221E+01 -.212E+02   0.136E-02 -.103E-02 -.130E-02
   0.131E+02 0.131E+02 0.322E+03   -.152E+02 -.151E+02 -.340E+03   0.204E+01 0.195E+01 0.183E+02   0.681E-04 -.566E-03 0.557E-04
   -.130E+02 -.246E+00 -.326E+03   0.150E+02 0.235E+00 0.343E+03   -.195E+01 0.257E-01 -.176E+02   -.134E-02 0.224E-03 0.236E-03
   0.580E+01 0.365E+01 0.330E+03   -.868E+01 -.543E+01 -.348E+03   0.353E+01 0.216E+01 0.181E+02   -.454E-05 -.886E-04 0.214E-03
   -.215E+02 -.121E+02 -.318E+03   0.226E+02 0.128E+02 0.336E+03   -.511E+00 -.275E+00 -.180E+02   0.104E-03 -.759E-03 0.112E-02
   0.856E-01 -.112E+00 0.329E+03   0.294E+01 0.188E+01 -.351E+03   -.370E+01 -.217E+01 0.213E+02   -.106E-02 0.115E-02 -.118E-03
   -.386E+00 0.293E+00 -.331E+03   -.240E+01 -.193E+01 0.353E+03   0.345E+01 0.204E+01 -.218E+02   -.937E-03 0.105E-02 -.116E-02
   0.121E+02 -.108E+00 0.320E+03   -.141E+02 0.615E-01 -.337E+03   0.198E+01 0.303E-01 0.177E+02   -.163E-02 -.480E-03 -.236E-03
   -.139E+02 -.136E+02 -.328E+03   0.158E+02 0.156E+02 0.346E+03   -.197E+01 -.195E+01 -.182E+02   -.191E-03 -.105E-02 0.509E-03
   0.564E+01 0.251E+01 0.330E+03   -.846E+01 -.407E+01 -.348E+03   0.348E+01 0.195E+01 0.185E+02   -.515E-03 -.238E-03 -.223E-03
   -.210E+02 -.121E+02 -.318E+03   0.222E+02 0.127E+02 0.335E+03   -.458E+00 -.213E+00 -.179E+02   -.741E-03 0.543E-03 0.111E-02
   0.116E+02 0.631E+01 0.323E+03   -.156E+02 -.853E+01 -.342E+03   0.457E+01 0.258E+01 0.189E+02   -.107E-02 -.316E-03 -.454E-03
   -.115E+02 -.691E+01 -.325E+03   0.154E+02 0.930E+01 0.344E+03   -.450E+01 -.271E+01 -.183E+02   -.794E-03 0.109E-03 -.166E-02
   -.301E+01 0.437E+01 0.325E+03   0.370E+01 -.480E+01 -.348E+03   -.663E+00 0.435E+00 0.226E+02   0.460E-04 0.139E-02 -.416E-03
   0.501E+01 0.110E+02 -.327E+03   -.639E+01 -.130E+02 0.349E+03   0.137E+01 0.201E+01 -.215E+02   0.134E-02 0.430E-03 0.297E-03
   0.411E+01 0.259E+01 0.328E+03   -.199E+01 -.131E+01 -.350E+03   -.267E+01 -.161E+01 0.212E+02   -.429E-04 0.838E-03 0.382E-03
   0.109E+02 0.652E+01 -.324E+03   -.112E+02 -.670E+01 0.346E+03   -.240E+00 -.153E+00 -.218E+02   -.120E-03 0.190E-06 0.113E-02
   0.116E+02 0.634E+01 0.323E+03   -.155E+02 -.860E+01 -.342E+03   0.455E+01 0.261E+01 0.189E+02   0.517E-03 0.669E-04 0.329E-03
   -.115E+02 -.551E+01 -.325E+03   0.154E+02 0.757E+01 0.344E+03   -.453E+01 -.241E+01 -.187E+02   0.112E-02 0.636E-05 -.819E-03
   -.430E+01 -.108E+02 0.322E+03   0.576E+01 0.128E+02 -.343E+03   -.144E+01 -.204E+01 0.216E+02   0.167E-02 -.479E-03 -.443E-03
   0.361E+01 -.391E+01 -.330E+03   -.426E+01 0.431E+01 0.353E+03   0.635E+00 -.404E+00 -.224E+02   -.255E-04 0.546E-03 -.643E-03
   0.453E+01 0.207E+01 0.328E+03   -.276E+01 -.951E+00 -.350E+03   -.234E+01 -.147E+01 0.217E+02   0.887E-03 -.513E-03 0.354E-03
   0.107E+02 0.670E+01 -.324E+03   -.110E+02 -.696E+01 0.346E+03   -.279E+00 -.847E-01 -.218E+02   0.505E-03 0.256E-03 0.119E-02
   0.647E+00 0.425E+00 -.213E+01   -.677E+00 -.438E+00 0.205E+01   -.223E+00 -.134E+00 0.187E+00   0.269E-04 -.596E-06 0.114E-03
   -.115E+01 -.833E+00 -.145E+00   0.105E+01 0.712E+00 0.118E+00   0.235E+00 0.206E+00 0.625E-02   -.190E-04 -.320E-04 -.124E-03
   -.757E-01 -.159E+00 -.198E+01   -.214E-03 0.474E-01 0.189E+01   -.544E-01 0.449E-01 0.157E+00   0.240E-04 -.262E-04 -.283E-04
   0.580E+00 0.398E+00 -.211E+01   -.625E+00 -.415E+00 0.204E+01   -.202E+00 -.130E+00 0.183E+00   -.211E-04 0.334E-05 0.120E-03
   0.701E-01 -.131E-01 0.167E+01   0.869E-01 0.150E+00 -.149E+01   -.321E-01 -.645E-01 -.216E+00   -.185E-04 0.754E-05 -.110E-03
   0.781E+00 0.496E+00 -.406E-01   -.661E+00 -.377E+00 0.152E+00   -.260E+00 -.197E+00 -.761E-01   -.514E-04 0.109E-04 -.206E-04
 -----------------------------------------------------------------------------------------------
   0.272E+00 0.260E-01 -.101E+01   -.197E-12 0.170E-12 0.224E-12   -.310E+00 -.319E-01 0.104E+01   -.457E-04 0.304E-05 0.280E-03
 
 
 POSITION                                       TOTAL-FORCE (eV/Angst)
 -----------------------------------------------------------------------------------
      0.06418      1.64897      2.34811        -0.018537      0.020140      0.015108
      0.03671      0.00250      7.03197        -0.012008      0.001439      0.021575
      1.36632      0.80106     11.83606         0.034986      0.034942      0.152700
     -1.34574      4.08434      2.34842        -0.006887     -0.022095      0.000101
     -1.37356      2.43629      7.02710        -0.007888     -0.013486      0.010461
     -0.04367      3.23653     11.83673         0.039404      0.007181      0.145119
      2.85641      1.63416      2.32421        -0.015296     -0.003682     -0.017469
      2.83647     -0.01011      7.09491         0.013543      0.006827     -0.020311
      4.14975      0.78132     11.71766        -0.006014     -0.009192      0.163401
      1.44497      4.06895      2.32086         0.007987      0.010317      0.010706
      1.42691      2.42820      7.09863         0.003155      0.015356     -0.017339
      2.73832      3.21605     11.71423         0.012139      0.009501      0.189201
      1.46795      0.83452      1.37549        -0.665884     -0.401464     -0.092378
      0.07083      0.02666      3.32062         0.649317      0.379987      0.091890
      0.06634      1.65443      6.04930        -0.026225     -0.014593     -0.002108
      1.40791      0.81076      8.07506         0.025937      0.016034      0.016665
     -0.01326      0.00506     10.78885         0.646185      0.375732     -0.131387
     -0.08820      1.58500     12.81499         0.669039      0.388569     -0.102934
      0.05717      3.27131      1.37497        -0.679364     -0.401709     -0.107918
     -1.33694      2.46297      3.32121         0.669804      0.401843      0.096118
     -1.35470      4.05554      6.05266        -0.021543     -0.017449     -0.006731
     -0.01313      3.21110      8.07766         0.028332      0.017305      0.009011
     -1.42351      2.44107     10.79215         0.658062      0.392860     -0.134478
     -1.49918      4.02140     12.81444         0.658901      0.390153     -0.112118
      4.24326      0.80973      1.31519         0.587206      0.349867     -0.131121
      2.87631      0.02033      3.33413        -0.544624     -0.318567      0.137375
      2.77348      1.59272      6.09129         0.026147      0.006362      0.003664
      4.27242      0.84125      7.98329        -0.011942     -0.004608     -0.002543
      2.73364     -0.03482     10.83660        -0.539752     -0.320859     -0.120815
      2.81328      1.63517     12.72911        -0.569331     -0.339318     -0.097864
      2.83421      3.24527      1.31519         0.582802      0.346621     -0.129171
      1.46646      2.45719      3.33111        -0.559259     -0.338623      0.134171
      1.36237      3.99289      6.09462         0.016016      0.006345      0.006400
      2.86110      3.24096      7.98620        -0.016028     -0.006105      0.001736
      1.32119      2.40127     10.83546        -0.560118     -0.344483     -0.128836
      1.40416      4.07105     12.72919        -0.565915     -0.340512     -0.093429
      0.02776      0.02774     14.15391        -0.251127     -0.146211      0.105987
      1.38118      0.75341      4.69697         0.136538      0.083365     -0.021717
      0.02058      1.60947      9.42068        -0.129759     -0.067091      0.058750
     -1.38788      2.46254     14.15393        -0.245083     -0.145966      0.108719
      0.04317      3.27220      4.70456         0.125588      0.072260     -0.042748
     -1.33522      4.11627      9.43006        -0.138504     -0.076993      0.034554
 -----------------------------------------------------------------------------------
    total drift:                               -0.038326     -0.005851      0.029610


--------------------------------------------------------------------------------------------------------



  FREE ENERGIE OF THE ION-ELECTRON SYSTEM (eV)
  ---------------------------------------------------
  free  energy   TOTEN  =      -247.55488937 eV

  energy  without entropy=     -247.55488937  energy(sigma->0) =     -247.55488937
 


--------------------------------------------------------------------------------------------------------


    POTLOK:  cpu time    0.0539: real time    0.0542


--------------------------------------------------------------------------------------------------------


 stress matrix after NEB project (eV)
      1.27379      1.39035      1.49356
      1.39035     -0.21172      0.84776
      1.49356      0.84776      1.19553
  FORCES: max atom, RMS     0.796588    0.458162
  FORCE total and by dimension    2.969229    0.679364
  Stress total and by dimension    3.586318    1.493562


--------------------------------------------------------------------------------------------------------


    WAVPRE:  cpu time    0.0050: real time    0.0051
 FEWALD executed in parallel
    FEWALD:  cpu time    0.0008: real time    0.0008
    GENKIN:  cpu time    0.0169: real time    0.0170

 real space projection operators:
  total allocation   :       7684.31 KBytes
  max/ min on nodes  :       1081.95        840.35

    ORTHCH:  cpu time    1.3901: real time    1.4009
     LOOP+:  cpu time 5272.9134: real time 5330.0475