 running on   48 total cores
 distrk:  each k-point on   48 cores,    1 groups
 distr:  one band on    8 cores,    6 groups
 using from now: INCAR     
 vasp.5.4.1 05Feb16 (build Apr 23 2022 14:15:44) complex                        
  
 POSCAR found type information on POSCAR  Co O  Li
 POSCAR found :  3 types and      42 ions
 scaLAPACK will be used
 LDA part: xc-table for Pade appr. of Perdew
 POSCAR found type information on POSCAR  Co O  Li
 POSCAR found :  3 types and      42 ions
 POSCAR, INCAR and KPOINTS ok, starting setup
 WARNING: small aliasing (wrap around) errors must be expected
 FFT: planning ...
 WAVECAR not read
 WARNING: random wavefunctions but no delay for mixing, default for NELMDL
 entering main loop
       N       E                     dE             d eps       ncg     rms          rms(c)
RMM:   1     0.261582260368E+04    0.26158E+04   -0.11792E+05 14400   0.166E+03
RMM:   2     0.644585035077E+03   -0.19712E+04   -0.22851E+04 14400   0.370E+02
RMM:   3     0.664460436184E+02   -0.57814E+03   -0.54983E+03 14400   0.184E+02
RMM:   4    -0.146378703416E+03   -0.21282E+03   -0.17551E+03 14400   0.173E+02
RMM:   5    -0.249965048285E+03   -0.10359E+03   -0.67581E+02 14400   0.723E+01
RMM:   6    -0.276841615706E+03   -0.26877E+02   -0.17863E+02 14400   0.559E+01
RMM:   7    -0.286571401581E+03   -0.97298E+01   -0.73266E+01 14400   0.221E+01
RMM:   8    -0.288754867700E+03   -0.21835E+01   -0.15132E+01 14400   0.172E+01
RMM:   9    -0.289840544678E+03   -0.10857E+01   -0.92444E+00 38298   0.598E+00
RMM:  10    -0.289824858178E+03    0.15686E-01   -0.32182E-01 39036   0.137E+00
RMM:  11    -0.289826885587E+03   -0.20274E-02   -0.33469E-02 40694   0.291E-01
RMM:  12    -0.289827008252E+03   -0.12266E-03   -0.13696E-03 39844   0.669E-02    0.969E+01
RMM:  13    -0.340902962807E+03   -0.51076E+02   -0.90685E+02 32059   0.988E+01    0.164E+02
RMM:  14    -0.215475887521E+03    0.12543E+03   -0.11708E+02 28800   0.374E+01    0.448E+01
RMM:  15    -0.261559826349E+03   -0.46084E+02   -0.82119E+01 28839   0.249E+01    0.115E+02
RMM:  16    -0.228726148836E+03    0.32834E+02   -0.14572E+01 28808   0.133E+01    0.797E+01
RMM:  17    -0.226352084487E+03    0.23741E+01   -0.18556E+01 28804   0.135E+01    0.753E+01
RMM:  18    -0.226982263427E+03   -0.63018E+00   -0.99896E+00 28800   0.103E+01    0.509E+01
RMM:  19    -0.222286243993E+03    0.46960E+01   -0.12979E+01 28802   0.117E+01    0.285E+01
RMM:  20    -0.227185067583E+03   -0.48988E+01   -0.77304E+00 28800   0.859E+00    0.209E+01
RMM:  21    -0.229286016212E+03   -0.21009E+01   -0.26968E+00 28800   0.527E+00    0.146E+01
RMM:  22    -0.231119051981E+03   -0.18330E+01   -0.78446E-01 28874   0.258E+00    0.126E+01
RMM:  23    -0.235885809400E+03   -0.47668E+01   -0.41572E+00 28800   0.532E+00    0.106E+01
RMM:  24    -0.238482464966E+03   -0.25967E+01   -0.33960E+00 28800   0.455E+00    0.922E+00
RMM:  25    -0.238838258724E+03   -0.35579E+00   -0.60564E-01 28825   0.241E+00    0.722E+00
RMM:  26    -0.239370223051E+03   -0.53196E+00   -0.63845E-01 28800   0.227E+00    0.629E+00
RMM:  27    -0.239425848344E+03   -0.55625E-01   -0.17320E-01 28801   0.129E+00    0.548E+00
RMM:  28    -0.239446705158E+03   -0.20857E-01   -0.62096E-02 28858   0.860E-01    0.627E+00
RMM:  29    -0.239437036790E+03    0.96684E-02   -0.94240E-03 29672   0.326E-01    0.633E+00
RMM:  30    -0.239434396165E+03    0.26406E-02   -0.81071E-04 30981   0.864E-02    0.634E+00
RMM:  31    -0.239440449333E+03   -0.60532E-02   -0.82398E-04 28804   0.867E-02    0.628E+00
RMM:  32    -0.239442406738E+03   -0.19574E-02   -0.20106E-04 28810   0.446E-02    0.624E+00
RMM:  33    -0.239443589719E+03   -0.11830E-02   -0.61704E-03 28800   0.269E-01    0.597E+00
RMM:  34    -0.239424341206E+03    0.19249E-01   -0.34339E-02 28800   0.642E-01    0.544E+00
RMM:  35    -0.239377567531E+03    0.46774E-01   -0.28645E-02 28800   0.564E-01    0.482E+00
RMM:  36    -0.239357197108E+03    0.20370E-01   -0.20707E-02 28804   0.495E-01    0.425E+00
RMM:  37    -0.239376101472E+03   -0.18904E-01   -0.22655E-02 28804   0.504E-01    0.371E+00
RMM:  38    -0.239420134888E+03   -0.44033E-01   -0.30410E-02 28800   0.590E-01    0.352E+00
RMM:  39    -0.239462204641E+03   -0.42070E-01   -0.27178E-02 28800   0.520E-01    0.347E+00
RMM:  40    -0.239461717006E+03    0.48764E-03   -0.10434E-03 29923   0.987E-02    0.347E+00
RMM:  41    -0.239469133616E+03   -0.74166E-02   -0.37007E-03 28811   0.170E-01    0.343E+00
RMM:  42    -0.239480812216E+03   -0.11679E-01   -0.31655E-03 28802   0.179E-01    0.344E+00
RMM:  43    -0.239485201438E+03   -0.43892E-02   -0.47705E-03 28800   0.215E-01    0.356E+00
RMM:  44    -0.239480217231E+03    0.49842E-02   -0.98511E-04 29276   0.104E-01    0.367E+00
RMM:  45    -0.239486903818E+03   -0.66866E-02   -0.20697E-04 29442   0.452E-02    0.360E+00
RMM:  46    -0.239561325664E+03   -0.74422E-01   -0.28465E-02 28800   0.512E-01    0.356E+00
RMM:  47    -0.239725476671E+03   -0.16415E+00   -0.99570E-02 28803   0.101E+00    0.551E+00
RMM:  48    -0.239728433432E+03   -0.29568E-02   -0.61841E-03 29856   0.258E-01    0.546E+00
RMM:  49    -0.239697133992E+03    0.31299E-01   -0.46147E-03 29098   0.198E-01    0.420E+00
RMM:  50    -0.239717669882E+03   -0.20536E-01   -0.78709E-02 28800   0.912E-01    0.787E+00
RMM:  51    -0.239716934602E+03    0.73528E-03   -0.40851E-03 29605   0.221E-01    0.839E+00
RMM:  52    -0.239695874617E+03    0.21060E-01   -0.68034E-03 28931   0.272E-01    0.919E+00
RMM:  53    -0.239685763232E+03    0.10111E-01   -0.10315E-03 29477   0.107E-01    0.930E+00
RMM:  54    -0.239702809190E+03   -0.17046E-01   -0.29254E-03 28800   0.189E-01    0.853E+00
RMM:  55    -0.239719611378E+03   -0.16802E-01   -0.82994E-04 28801   0.964E-02    0.860E+00
RMM:  56    -0.239725529904E+03   -0.59185E-02   -0.13475E-03 29019   0.110E-01    0.776E+00
RMM:  57    -0.239675105997E+03    0.50424E-01   -0.32699E-02 28818   0.549E-01    0.406E+00
RMM:  58    -0.239526175783E+03    0.14893E+00   -0.43650E-01 28810   0.210E+00    0.240E+00
RMM:  59    -0.239550427242E+03   -0.24251E-01   -0.26510E-02 29821   0.528E-01    0.227E+00
RMM:  60    -0.239569303316E+03   -0.18876E-01   -0.15339E-02 28800   0.448E-01    0.189E+00
RMM:  61    -0.239577688270E+03   -0.83850E-02   -0.30043E-02 28844   0.614E-01    0.240E+00
RMM:  62    -0.239513572310E+03    0.64116E-01   -0.20126E-02 28800   0.487E-01    0.240E+00
RMM:  63    -0.239596969489E+03   -0.83397E-01   -0.71061E-02 28800   0.800E-01    0.460E+00
RMM:  64    -0.239570781889E+03    0.26188E-01   -0.20201E-03 29136   0.170E-01    0.391E+00
RMM:  65    -0.239562058817E+03    0.87231E-02   -0.28917E-04 29916   0.524E-02    0.366E+00
RMM:  66    -0.239560622643E+03    0.14362E-02   -0.61991E-05 29287   0.251E-02    0.359E+00
RMM:  67    -0.239554750083E+03    0.58726E-02   -0.97408E-04 28800   0.103E-01    0.369E+00
RMM:  68    -0.239578598513E+03   -0.23848E-01   -0.15722E-02 28800   0.418E-01    0.455E+00
RMM:  69    -0.239584781101E+03   -0.61826E-02   -0.53747E-04 29375   0.742E-02    0.457E+00
RMM:  70    -0.239597991361E+03   -0.13210E-01   -0.34295E-04 29543   0.593E-02    0.493E+00
RMM:  71    -0.239592645642E+03    0.53457E-02   -0.89621E-03 28800   0.300E-01    0.400E+00
RMM:  72    -0.239535172457E+03    0.57473E-01   -0.29802E-02 28809   0.509E-01    0.311E+00
RMM:  73    -0.239478315316E+03    0.56857E-01   -0.30337E-02 29039   0.570E-01    0.307E+00
RMM:  74    -0.239398070328E+03    0.80245E-01   -0.11687E-02 29131   0.330E-01    0.383E+00
RMM:  75    -0.239347117547E+03    0.50953E-01   -0.54740E-03 28923   0.240E-01    0.492E+00
RMM:  76    -0.239312960638E+03    0.34157E-01   -0.21558E-03 29693   0.147E-01    0.583E+00
RMM:  77    -0.239291448068E+03    0.21513E-01   -0.15404E-03 28891   0.134E-01    0.615E+00
RMM:  78    -0.239272024261E+03    0.19424E-01   -0.97740E-03 28800   0.327E-01    0.571E+00
RMM:  79    -0.239247266630E+03    0.24758E-01   -0.19506E-02 28800   0.458E-01    0.921E+00
RMM:  80    -0.239234246289E+03    0.13020E-01   -0.12024E-03 29939   0.126E-01    0.945E+00
RMM:  81    -0.239250364818E+03   -0.16119E-01   -0.36353E-04 28984   0.692E-02    0.928E+00
RMM:  82    -0.239263453912E+03   -0.13089E-01   -0.69859E-04 28800   0.879E-02    0.984E+00
RMM:  83    -0.239177662597E+03    0.85791E-01   -0.75069E-03 28810   0.255E-01    0.104E+01
RMM:  84    -0.239194351745E+03   -0.16689E-01   -0.54170E-04 29287   0.861E-02    0.104E+01
RMM:  85    -0.239199660831E+03   -0.53091E-02   -0.62003E-05 30070   0.258E-02    0.103E+01
RMM:  86    -0.239286355148E+03   -0.86694E-01   -0.38592E-03 28800   0.187E-01    0.104E+01
RMM:  87    -0.239384695709E+03   -0.98341E-01   -0.92338E-03 28800   0.292E-01    0.102E+01
RMM:  88    -0.239416475323E+03   -0.31780E-01   -0.24893E-02 28802   0.540E-01    0.896E+00
RMM:  89    -0.239415761343E+03    0.71398E-03   -0.13208E-03 29494   0.119E-01    0.888E+00
RMM:  90    -0.239418978597E+03   -0.32173E-02   -0.51045E-04 29573   0.725E-02    0.878E+00
RMM:  91    -0.239409892107E+03    0.90865E-02   -0.53015E-04 28842   0.697E-02    0.897E+00
RMM:  92    -0.239384980399E+03    0.24912E-01   -0.51696E-03 28892   0.223E-01    0.942E+00
RMM:  93    -0.239408857005E+03   -0.23877E-01   -0.39494E-03 28890   0.212E-01    0.867E+00
RMM:  94    -0.239422196421E+03   -0.13339E-01   -0.40444E-03 28800   0.194E-01    0.730E+00
RMM:  95    -0.239395842946E+03    0.26353E-01   -0.34908E-03 28800   0.211E-01    0.624E+00
RMM:  96    -0.239402088294E+03   -0.62453E-02   -0.19671E-04 30173   0.528E-02    0.608E+00
RMM:  97    -0.239414046494E+03   -0.11958E-01   -0.74753E-04 28800   0.936E-02    0.586E+00
RMM:  98    -0.239649039613E+03   -0.23499E+00   -0.33340E-01 28869   0.181E+00    0.274E+00
RMM:  99    -0.239706365422E+03   -0.57326E-01   -0.51711E-02 29075   0.753E-01    0.370E+00
RMM: 100    -0.239705031764E+03    0.13337E-02   -0.25410E-03 30048   0.173E-01    0.372E+00
RMM: 101    -0.239707382542E+03   -0.23508E-02   -0.16088E-03 28837   0.120E-01    0.378E+00
RMM: 102    -0.239706907799E+03    0.47474E-03   -0.82374E-04 29088   0.922E-02    0.402E+00
RMM: 103    -0.239729461890E+03   -0.22554E-01   -0.58690E-02 28800   0.773E-01    0.205E+00
RMM: 104    -0.239713177122E+03    0.16285E-01   -0.14848E-02 28905   0.438E-01    0.236E+00
RMM: 105    -0.239696246393E+03    0.16931E-01   -0.41134E-02 28833   0.668E-01    0.327E+00
RMM: 106    -0.239690798310E+03    0.54481E-02   -0.66116E-03 29279   0.259E-01    0.363E+00
RMM: 107    -0.239688720608E+03    0.20777E-02   -0.57998E-04 30613   0.778E-02    0.363E+00
RMM: 108    -0.239678615010E+03    0.10106E-01   -0.15809E-03 28806   0.125E-01    0.319E+00
RMM: 109    -0.239680563762E+03   -0.19488E-02   -0.15797E-04 29136   0.413E-02    0.314E+00
RMM: 110    -0.239689940185E+03   -0.93764E-02   -0.54232E-04 28848   0.706E-02    0.328E+00
RMM: 111    -0.239689567091E+03    0.37309E-03   -0.68104E-05 28566   0.276E-02    0.334E+00
RMM: 112    -0.239689787972E+03   -0.22088E-03   -0.54658E-06 21489   0.751E-03    0.335E+00
RMM: 113    -0.239670941062E+03    0.18847E-01   -0.78996E-03 28800   0.262E-01    0.317E+00
RMM: 114    -0.239673713838E+03   -0.27728E-02   -0.74834E-04 28996   0.908E-02    0.283E+00
RMM: 115    -0.239680924432E+03   -0.72106E-02   -0.10489E-03 28949   0.106E-01    0.271E+00
RMM: 116    -0.239673033196E+03    0.78912E-02   -0.19210E-03 28805   0.146E-01    0.243E+00
RMM: 117    -0.239673066871E+03   -0.33675E-04   -0.71753E-04 29542   0.859E-02    0.229E+00
RMM: 118    -0.239669785350E+03    0.32815E-02   -0.71528E-03 28802   0.294E-01    0.288E+00
RMM: 119    -0.239669018829E+03    0.76652E-03   -0.20710E-03 28848   0.152E-01    0.276E+00
RMM: 120    -0.239675409323E+03   -0.63905E-02   -0.17284E-03 28965   0.134E-01    0.316E+00
RMM: 121    -0.239689679062E+03   -0.14270E-01   -0.12459E-03 28843   0.103E-01    0.367E+00
RMM: 122    -0.239702777736E+03   -0.13099E-01   -0.92996E-03 28849   0.293E-01    0.384E+00
RMM: 123    -0.239689628969E+03    0.13149E-01   -0.16166E-02 28910   0.410E-01    0.371E+00
RMM: 124    -0.239690404487E+03   -0.77552E-03   -0.83610E-04 29782   0.955E-02    0.369E+00
RMM: 125    -0.239695899662E+03   -0.54952E-02   -0.10172E-03 28832   0.982E-02    0.361E+00
RMM: 126    -0.239702672596E+03   -0.67729E-02   -0.11022E-02 28800   0.323E-01    0.293E+00
RMM: 127    -0.239699841465E+03    0.28311E-02   -0.14473E-02 28862   0.367E-01    0.218E+00
RMM: 128    -0.239693142812E+03    0.66987E-02   -0.15084E-02 28971   0.384E-01    0.235E+00
RMM: 129    -0.239692233815E+03    0.90900E-03   -0.16790E-03 29447   0.128E-01    0.225E+00
RMM: 130    -0.239671499603E+03    0.20734E-01   -0.20522E-02 28834   0.469E-01    0.282E+00
RMM: 131    -0.239669021083E+03    0.24785E-02   -0.33925E-03 28976   0.197E-01    0.302E+00
RMM: 132    -0.239668898495E+03    0.12259E-03   -0.40849E-03 28889   0.198E-01    0.345E+00
RMM: 133    -0.239670244176E+03   -0.13457E-02   -0.19671E-02 28800   0.447E-01    0.243E+00
RMM: 134    -0.239655032480E+03    0.15212E-01   -0.20211E-03 28913   0.145E-01    0.255E+00
RMM: 135    -0.239639491084E+03    0.15541E-01   -0.21782E-03 28800   0.147E-01    0.284E+00
RMM: 136    -0.239636421941E+03    0.30691E-02   -0.11830E-03 28980   0.112E-01    0.280E+00
RMM: 137    -0.239633654609E+03    0.27673E-02   -0.20798E-03 29036   0.151E-01    0.279E+00
RMM: 138    -0.239448436570E+03    0.18522E+00   -0.25907E-01 28828   0.163E+00    0.420E+00
RMM: 139    -0.239420653113E+03    0.27783E-01   -0.19402E-02 29462   0.438E-01    0.433E+00
RMM: 140    -0.239518127075E+03   -0.97474E-01   -0.20285E-02 28804   0.438E-01    0.353E+00
RMM: 141    -0.239652205909E+03   -0.13408E+00   -0.11813E-01 28913   0.109E+00    0.242E+00
RMM: 142    -0.239644390062E+03    0.78158E-02   -0.55653E-02 29211   0.736E-01    0.271E+00
RMM: 143    -0.239635049768E+03    0.93403E-02   -0.11731E-01 28989   0.102E+00    0.723E+00
RMM: 144    -0.239637562226E+03   -0.25125E-02   -0.52052E-03 29684   0.227E-01    0.726E+00
RMM: 145    -0.239636316539E+03    0.12457E-02   -0.58850E-04 31090   0.791E-02    0.724E+00
RMM: 146    -0.239643197530E+03   -0.68810E-02   -0.58618E-04 29159   0.758E-02    0.760E+00
RMM: 147    -0.239664975402E+03   -0.21778E-01   -0.17694E-03 29003   0.126E-01    0.848E+00
RMM: 148    -0.239667428293E+03   -0.24529E-02   -0.45158E-03 28867   0.222E-01    0.865E+00
RMM: 149    -0.239665815164E+03    0.16131E-02   -0.18147E-04 29822   0.469E-02    0.861E+00
RMM: 150    -0.239657879074E+03    0.79361E-02   -0.27406E-03 28800   0.162E-01    0.819E+00
RMM: 151    -0.239660944542E+03   -0.30655E-02   -0.13460E-03 29277   0.119E-01    0.836E+00
RMM: 152    -0.239661348439E+03   -0.40390E-03   -0.70500E-05 29599   0.279E-02    0.834E+00
RMM: 153    -0.239676814848E+03   -0.15466E-01   -0.23094E-03 28801   0.160E-01    0.894E+00
RMM: 154    -0.239658424059E+03    0.18391E-01   -0.67915E-03 28800   0.261E-01    0.732E+00
RMM: 155    -0.239701700961E+03   -0.43277E-01   -0.32211E-03 28800   0.163E-01    0.800E+00
RMM: 156    -0.239689089204E+03    0.12612E-01   -0.49689E-04 28872   0.715E-02    0.801E+00
RMM: 157    -0.239671020400E+03    0.18069E-01   -0.12479E-03 28848   0.121E-01    0.726E+00
RMM: 158    -0.239691655600E+03   -0.20635E-01   -0.71622E-03 28840   0.258E-01    0.679E+00
RMM: 159    -0.239688607147E+03    0.30485E-02   -0.37485E-04 29661   0.610E-02    0.619E+00
RMM: 160    -0.239719658147E+03   -0.31051E-01   -0.17160E-03 28802   0.126E-01    0.700E+00
RMM: 161    -0.239725969523E+03   -0.63114E-02   -0.28382E-03 29022   0.162E-01    0.562E+00
RMM: 162    -0.239728554074E+03   -0.25846E-02   -0.74388E-03 29076   0.276E-01    0.363E+00
RMM: 163    -0.239727843060E+03    0.71101E-03   -0.10990E-02 29026   0.321E-01    0.257E+00
RMM: 164    -0.239738865252E+03   -0.11022E-01   -0.16359E-02 28990   0.405E-01    0.197E+00
RMM: 165    -0.239729667156E+03    0.91981E-02   -0.15781E-02 29012   0.414E-01    0.202E+00
RMM: 166    -0.239717930151E+03    0.11737E-01   -0.40417E-03 29199   0.209E-01    0.227E+00
RMM: 167    -0.239712463356E+03    0.54668E-02   -0.10836E-03 29352   0.106E-01    0.231E+00
RMM: 168    -0.239719430556E+03   -0.69672E-02   -0.71272E-03 28922   0.264E-01    0.214E+00
RMM: 169    -0.239694100780E+03    0.25330E-01   -0.74025E-03 28804   0.288E-01    0.259E+00
RMM: 170    -0.239695081846E+03   -0.98107E-03   -0.39895E-04 29730   0.638E-02    0.259E+00
RMM: 171    -0.239698002991E+03   -0.29211E-02   -0.10505E-04 28864   0.312E-02    0.245E+00
RMM: 172    -0.239677570863E+03    0.20432E-01   -0.33497E-03 28800   0.193E-01    0.293E+00
RMM: 173    -0.239641164453E+03    0.36406E-01   -0.85453E-03 28953   0.298E-01    0.296E+00
RMM: 174    -0.239611585036E+03    0.29579E-01   -0.51554E-03 28909   0.227E-01    0.301E+00
RMM: 175    -0.239613606283E+03   -0.20212E-02   -0.19046E-04 31003   0.410E-02    0.300E+00
RMM: 176    -0.239617254214E+03   -0.36479E-02   -0.20782E-04 28991   0.470E-02    0.303E+00
RMM: 177    -0.239642321687E+03   -0.25067E-01   -0.14410E-03 28828   0.120E-01    0.319E+00
RMM: 178    -0.239684750757E+03   -0.42429E-01   -0.34835E-03 28800   0.186E-01    0.335E+00
RMM: 179    -0.239697386781E+03   -0.12636E-01   -0.18723E-03 28800   0.142E-01    0.343E+00
RMM: 180    -0.239711501102E+03   -0.14114E-01   -0.31089E-03 28800   0.170E-01    0.331E+00
RMM: 181    -0.239699315637E+03    0.12185E-01   -0.17189E-03 29174   0.127E-01    0.305E+00
RMM: 182    -0.239688642753E+03    0.10673E-01   -0.16073E-03 29467   0.127E-01    0.345E+00
RMM: 183    -0.239586558351E+03    0.10208E+00   -0.59452E-02 28856   0.776E-01    0.564E+00
RMM: 184    -0.239664458041E+03   -0.77900E-01   -0.28152E-02 28822   0.531E-01    0.305E+00
RMM: 185    -0.239688114675E+03   -0.23657E-01   -0.32034E-03 28816   0.186E-01    0.335E+00
RMM: 186    -0.239677717497E+03    0.10397E-01   -0.23327E-04 28974   0.486E-02    0.332E+00
RMM: 187    -0.239686810734E+03   -0.90932E-02   -0.15643E-03 28867   0.120E-01    0.292E+00
RMM: 188    -0.239701542053E+03   -0.14731E-01   -0.10054E-02 28800   0.323E-01    0.261E+00
RMM: 189    -0.239707062975E+03   -0.55209E-02   -0.32328E-03 29274   0.175E-01    0.227E+00
RMM: 190    -0.239711587533E+03   -0.45246E-02   -0.16963E-03 29035   0.128E-01    0.231E+00
RMM: 191    -0.239709940884E+03    0.16466E-02   -0.58204E-04 28795   0.767E-02    0.237E+00
RMM: 192    -0.239709827645E+03    0.11324E-03   -0.60075E-05 28055   0.248E-02    0.235E+00
RMM: 193    -0.239723853595E+03   -0.14026E-01   -0.75450E-03 28834   0.284E-01    0.200E+00
RMM: 194    -0.239731479129E+03   -0.76255E-02   -0.50585E-04 29451   0.766E-02    0.213E+00
RMM: 195    -0.239741105815E+03   -0.96267E-02   -0.10591E-03 28971   0.993E-02    0.237E+00
RMM: 196    -0.239747389132E+03   -0.62833E-02   -0.11806E-03 28916   0.106E-01    0.244E+00
RMM: 197    -0.239760592882E+03   -0.13204E-01   -0.61573E-03 28810   0.241E-01    0.284E+00
RMM: 198    -0.239770653703E+03   -0.10061E-01   -0.19308E-02 28861   0.416E-01    0.359E+00
RMM: 199    -0.239771580215E+03   -0.92651E-03   -0.23297E-03 29522   0.144E-01    0.386E+00
RMM: 200    -0.239771030594E+03    0.54962E-03   -0.12835E-04 30547   0.357E-02    0.381E+00
RMM: 201    -0.239773810094E+03   -0.27795E-02   -0.69169E-05 28778   0.277E-02    0.390E+00
RMM: 202    -0.239772481465E+03    0.13286E-02   -0.14545E-05 26245   0.122E-02    0.387E+00
RMM: 203    -0.239776791347E+03   -0.43099E-02   -0.37809E-03 28897   0.197E-01    0.444E+00
RMM: 204    -0.239776624037E+03    0.16731E-03   -0.54423E-04 29218   0.772E-02    0.414E+00
RMM: 205    -0.239778478664E+03   -0.18546E-02   -0.23953E-04 28668   0.495E-02    0.394E+00
RMM: 206    -0.239788246359E+03   -0.97677E-02   -0.56905E-04 28800   0.758E-02    0.392E+00
RMM: 207    -0.239803435326E+03   -0.15189E-01   -0.17180E-03 28800   0.128E-01    0.392E+00
RMM: 208    -0.239922832502E+03   -0.11940E+00   -0.27333E-02 28800   0.519E-01    0.716E+00
RMM: 209    -0.239869606212E+03    0.53226E-01   -0.31258E-03 29177   0.187E-01    0.532E+00
RMM: 210    -0.239842110744E+03    0.27495E-01   -0.19614E-03 28804   0.146E-01    0.449E+00
RMM: 211    -0.239818109660E+03    0.24001E-01   -0.14125E-03 28836   0.118E-01    0.385E+00
RMM: 212    -0.239793607107E+03    0.24503E-01   -0.83621E-03 28800   0.274E-01    0.297E+00
RMM: 213    -0.239761420600E+03    0.32187E-01   -0.31759E-02 28869   0.554E-01    0.228E+00
RMM: 214    -0.239747351485E+03    0.14069E-01   -0.70935E-03 29237   0.272E-01    0.238E+00
RMM: 215    -0.239752917099E+03   -0.55656E-02   -0.31087E-04 30028   0.576E-02    0.236E+00
RMM: 216    -0.239756898613E+03   -0.39815E-02   -0.28511E-04 28804   0.530E-02    0.234E+00
RMM: 217    -0.239758517974E+03   -0.16194E-02   -0.58149E-05 28327   0.237E-02    0.235E+00
RMM: 218    -0.239669852552E+03    0.88665E-01   -0.45018E-02 28800   0.677E-01    0.268E+00
RMM: 219    -0.239661748938E+03    0.81036E-02   -0.36195E-03 29251   0.194E-01    0.255E+00
RMM: 220    -0.239641707468E+03    0.20041E-01   -0.15646E-03 29452   0.130E-01    0.260E+00
RMM: 221    -0.239614699315E+03    0.27008E-01   -0.18337E-03 28845   0.143E-01    0.276E+00
RMM: 222    -0.239590519598E+03    0.24180E-01   -0.15661E-03 28892   0.133E-01    0.290E+00
RMM: 223    -0.239644852924E+03   -0.54333E-01   -0.52096E-03 28800   0.233E-01    0.263E+00
RMM: 224    -0.239632155966E+03    0.12697E-01   -0.77235E-04 28956   0.889E-02    0.276E+00
RMM: 225    -0.239592530620E+03    0.39625E-01   -0.74079E-03 28800   0.270E-01    0.319E+00
RMM: 226    -0.239539586289E+03    0.52944E-01   -0.10900E-02 28822   0.325E-01    0.371E+00
RMM: 227    -0.239539577407E+03    0.88821E-05   -0.61289E-04 29904   0.768E-02    0.377E+00
RMM: 228    -0.239545973587E+03   -0.63962E-02   -0.12811E-03 28806   0.118E-01    0.352E+00
RMM: 229    -0.239542633199E+03    0.33404E-02   -0.47559E-05 28970   0.255E-02    0.354E+00
RMM: 230    -0.239550826042E+03   -0.81928E-02   -0.21741E-04 28839   0.469E-02    0.345E+00
RMM: 231    -0.239549198445E+03    0.16276E-02   -0.70218E-06 24387   0.102E-02    0.348E+00
RMM: 232    -0.239556181134E+03   -0.69827E-02   -0.17740E-04 28865   0.418E-02    0.339E+00
RMM: 233    -0.239531997574E+03    0.24184E-01   -0.12263E-03 28800   0.120E-01    0.356E+00
RMM: 234    -0.239525763097E+03    0.62345E-02   -0.52853E-04 28903   0.712E-02    0.357E+00
RMM: 235    -0.239509412298E+03    0.16351E-01   -0.88197E-04 28808   0.931E-02    0.368E+00
RMM: 236    -0.239503254244E+03    0.61581E-02   -0.31615E-04 29271   0.540E-02    0.371E+00
RMM: 237    -0.239501206049E+03    0.20482E-02   -0.10941E-04 28937   0.302E-02    0.370E+00
RMM: 238    -0.239521698075E+03   -0.20492E-01   -0.13000E-03 28800   0.109E-01    0.366E+00
RMM: 239    -0.239511053528E+03    0.10645E-01   -0.27373E-04 28800   0.533E-02    0.371E+00
RMM: 240    -0.239510319513E+03    0.73401E-03   -0.18027E-04 28675   0.410E-02    0.368E+00
RMM: 241    -0.239542299543E+03   -0.31980E-01   -0.18112E-03 28800   0.134E-01    0.342E+00
RMM: 242    -0.239574721685E+03   -0.32422E-01   -0.24265E-03 28975   0.154E-01    0.326E+00
RMM: 243    -0.239569305210E+03    0.54165E-02   -0.34853E-03 29221   0.181E-01    0.323E+00
RMM: 244    -0.239588788517E+03   -0.19483E-01   -0.56689E-03 29082   0.235E-01    0.309E+00
RMM: 245    -0.239588111608E+03    0.67691E-03   -0.68454E-04 29422   0.815E-02    0.307E+00
RMM: 246    -0.239593568895E+03   -0.54573E-02   -0.95155E-05 29530   0.304E-02    0.305E+00
RMM: 247    -0.239601340702E+03   -0.77718E-02   -0.17711E-04 28842   0.424E-02    0.299E+00
RMM: 248    -0.239651885174E+03   -0.50544E-01   -0.14806E-02 28846   0.381E-01    0.270E+00
RMM: 249    -0.239650612401E+03    0.12728E-02   -0.32599E-04 29510   0.597E-02    0.269E+00
RMM: 250    -0.239649872492E+03    0.73991E-03   -0.31369E-05 29628   0.181E-02    0.268E+00
RMM: 251    -0.239654066937E+03   -0.41944E-02   -0.95814E-05 28499   0.306E-02    0.271E+00
RMM: 252    -0.239673100562E+03   -0.19034E-01   -0.22681E-03 28816   0.146E-01    0.283E+00
RMM: 253    -0.239652800389E+03    0.20300E-01   -0.17471E-01 28979   0.129E+00    0.690E+00
RMM: 254    -0.239701601328E+03   -0.48801E-01   -0.13305E-02 29151   0.378E-01    0.495E+00
RMM: 255    -0.239685033413E+03    0.16568E-01   -0.11931E-03 29010   0.116E-01    0.452E+00
RMM: 256    -0.239678196572E+03    0.68368E-02   -0.35979E-03 28971   0.187E-01    0.395E+00
RMM: 257    -0.239670590666E+03    0.76059E-02   -0.14417E-03 28891   0.120E-01    0.423E+00
RMM: 258    -0.239692453290E+03   -0.21863E-01   -0.39179E-03 28800   0.189E-01    0.450E+00
RMM: 259    -0.239690588987E+03    0.18643E-02   -0.79575E-04 28994   0.840E-02    0.468E+00
RMM: 260    -0.239681078508E+03    0.95105E-02   -0.15910E-03 28800   0.118E-01    0.457E+00
RMM: 261    -0.239681044018E+03    0.34490E-04   -0.35208E-05 28051   0.195E-02    0.457E+00
RMM: 262    -0.239676382759E+03    0.46613E-02   -0.16346E-04 28985   0.432E-02    0.465E+00
RMM: 263    -0.239690443591E+03   -0.14061E-01   -0.15054E-03 28800   0.115E-01    0.442E+00
RMM: 264    -0.239691105680E+03   -0.66209E-03   -0.26780E-04 28973   0.503E-02    0.456E+00
RMM: 265    -0.239692175595E+03   -0.10699E-02   -0.14874E-04 29133   0.374E-02    0.447E+00
RMM: 266    -0.239690481067E+03    0.16945E-02   -0.88536E-04 28800   0.966E-02    0.442E+00
RMM: 267    -0.239688126264E+03    0.23548E-02   -0.12540E-03 28911   0.107E-01    0.430E+00
RMM: 268    -0.239697512020E+03   -0.93858E-02   -0.47727E-04 28826   0.713E-02    0.403E+00
RMM: 269    -0.239684201975E+03    0.13310E-01   -0.58268E-03 28800   0.245E-01    0.554E+00
RMM: 270    -0.239683578378E+03    0.62360E-03   -0.23058E-04 29493   0.608E-02    0.547E+00
RMM: 271    -0.239682542773E+03    0.10356E-02   -0.59098E-05 29024   0.297E-02    0.557E+00
RMM: 272    -0.239688789121E+03   -0.62463E-02   -0.24739E-04 28825   0.522E-02    0.584E+00
RMM: 273    -0.239832743921E+03   -0.14395E+00   -0.71721E-01 28812   0.267E+00    0.882E+00
RMM: 274    -0.239826975159E+03    0.57688E-02   -0.23180E-02 29510   0.520E-01    0.868E+00
RMM: 275    -0.239831198449E+03   -0.42233E-02   -0.16931E-03 31456   0.146E-01    0.871E+00
RMM: 276    -0.239843745999E+03   -0.12548E-01   -0.35318E-04 29062   0.562E-02    0.882E+00
RMM: 277    -0.239839045954E+03    0.47000E-02   -0.36165E-04 28804   0.592E-02    0.873E+00
RMM: 278    -0.239740511870E+03    0.98534E-01   -0.83035E-02 28800   0.858E-01    0.869E+00
RMM: 279    -0.239781569864E+03   -0.41058E-01   -0.19411E-03 29459   0.145E-01    0.874E+00
RMM: 280    -0.239762606113E+03    0.18964E-01   -0.47841E-04 29544   0.678E-02    0.860E+00
RMM: 281    -0.239762556021E+03    0.50092E-04   -0.47605E-05 32436   0.173E-02    0.860E+00
RMM: 282    -0.239753903897E+03    0.86521E-02   -0.23454E-04 28884   0.493E-02    0.850E+00
RMM: 283    -0.239571325644E+03    0.18258E+00   -0.19256E-02 28800   0.434E-01    0.759E+00
RMM: 284    -0.239607074366E+03   -0.35749E-01   -0.80915E-04 29384   0.956E-02    0.771E+00
RMM: 285    -0.239668331721E+03   -0.61257E-01   -0.47125E-03 28989   0.219E-01    0.783E+00
RMM: 286    -0.239650570536E+03    0.17761E-01   -0.63084E-04 29312   0.833E-02    0.762E+00
RMM: 287    -0.239632199383E+03    0.18371E-01   -0.95739E-04 29200   0.999E-02    0.744E+00
RMM: 288    -0.239737323372E+03   -0.10512E+00   -0.64050E-01 28800   0.240E+00    0.313E+00
RMM: 289    -0.239774104374E+03   -0.36781E-01   -0.38789E-02 29021   0.607E-01    0.461E+00
RMM: 290    -0.239780050959E+03   -0.59466E-02   -0.43546E-03 29766   0.214E-01    0.475E+00
RMM: 291    -0.239780678632E+03   -0.62767E-03   -0.52308E-04 32720   0.596E-02    0.476E+00
RMM: 292    -0.239781303884E+03   -0.62525E-03   -0.82641E-05 29262   0.267E-02    0.480E+00
RMM: 293    -0.239768662820E+03    0.12641E-01   -0.20960E-02 28800   0.451E-01    0.312E+00
RMM: 294    -0.239786239014E+03   -0.17576E-01   -0.17904E-02 28848   0.400E-01    0.391E+00
RMM: 295    -0.239797016160E+03   -0.10777E-01   -0.36330E-03 29141   0.188E-01    0.454E+00
RMM: 296    -0.239768615124E+03    0.28401E-01   -0.94625E-03 28800   0.316E-01    0.314E+00
RMM: 297    -0.239747978369E+03    0.20637E-01   -0.16780E-02 28843   0.439E-01    0.332E+00
RMM: 298    -0.239740331140E+03    0.76472E-02   -0.22359E-02 28818   0.480E-01    0.264E+00
RMM: 299    -0.239728396838E+03    0.11934E-01   -0.16924E-03 29013   0.146E-01    0.263E+00
RMM: 300    -0.239719276596E+03    0.91202E-02   -0.64078E-04 29096   0.859E-02    0.271E+00
RMM: 301    -0.239730564846E+03   -0.11288E-01   -0.99625E-04 28802   0.108E-01    0.257E+00
RMM: 302    -0.239732695429E+03   -0.21306E-02   -0.40008E-03 28817   0.206E-01    0.279E+00
RMM: 303    -0.239759682658E+03   -0.26987E-01   -0.16844E-02 28830   0.392E-01    0.273E+00
RMM: 304    -0.239771383136E+03   -0.11700E-01   -0.64130E-03 29076   0.261E-01    0.289E+00
RMM: 305    -0.239773400441E+03   -0.20173E-02   -0.17353E-03 29763   0.131E-01    0.309E+00
RMM: 306    -0.239774067150E+03   -0.66671E-03   -0.12521E-04 29192   0.341E-02    0.312E+00
RMM: 307    -0.239770034233E+03    0.40329E-02   -0.12867E-03 28804   0.114E-01    0.282E+00
RMM: 308    -0.239729175220E+03    0.40859E-01   -0.24734E-02 28830   0.502E-01    0.250E+00
RMM: 309    -0.239735339051E+03   -0.61638E-02   -0.77438E-03 28819   0.284E-01    0.241E+00
RMM: 310    -0.239728698958E+03    0.66401E-02   -0.23616E-03 28933   0.148E-01    0.246E+00
RMM: 311    -0.239722281312E+03    0.64176E-02   -0.53197E-03 28838   0.233E-01    0.256E+00
RMM: 312    -0.239730126090E+03   -0.78448E-02   -0.14420E-02 28800   0.393E-01    0.295E+00
RMM: 313    -0.239714789450E+03    0.15337E-01   -0.10907E-02 28910   0.348E-01    0.323E+00
RMM: 314    -0.239712462761E+03    0.23267E-02   -0.48594E-04 29362   0.710E-02    0.330E+00
RMM: 315    -0.239724632300E+03   -0.12170E-01   -0.57769E-03 29003   0.238E-01    0.255E+00
RMM: 316    -0.239730427500E+03   -0.57952E-02   -0.23441E-02 28800   0.487E-01    0.192E+00
RMM: 317    -0.239699872785E+03    0.30555E-01   -0.16721E-02 28806   0.408E-01    0.201E+00
RMM: 318    -0.239706081287E+03   -0.62085E-02   -0.10522E-03 29324   0.116E-01    0.197E+00
RMM: 319    -0.239705004735E+03    0.10766E-02   -0.63618E-04 28936   0.901E-02    0.199E+00
RMM: 320    -0.239701323619E+03    0.36811E-02   -0.25091E-04 28873   0.521E-02    0.198E+00
RMM: 321    -0.239698890344E+03    0.24333E-02   -0.86683E-05 29209   0.297E-02    0.198E+00
RMM: 322    -0.239706950295E+03   -0.80600E-02   -0.40975E-04 28800   0.608E-02    0.194E+00
RMM: 323    -0.239726574528E+03   -0.19624E-01   -0.38891E-03 28800   0.194E-01    0.199E+00
RMM: 324    -0.239730929533E+03   -0.43550E-02   -0.97094E-04 29184   0.979E-02    0.198E+00
RMM: 325    -0.239729841980E+03    0.10876E-02   -0.78706E-04 29250   0.890E-02    0.196E+00
RMM: 326    -0.239728475339E+03    0.13666E-02   -0.54820E-04 29209   0.726E-02    0.194E+00
RMM: 327    -0.239727024509E+03    0.14508E-02   -0.95957E-05 29058   0.295E-02    0.193E+00
RMM: 328    -0.239749996154E+03   -0.22972E-01   -0.12487E-02 28800   0.327E-01    0.220E+00
RMM: 329    -0.239746159385E+03    0.38368E-02   -0.56743E-03 29005   0.239E-01    0.229E+00
RMM: 330    -0.239737003844E+03    0.91555E-02   -0.29701E-03 28975   0.167E-01    0.231E+00
RMM: 331    -0.239721081353E+03    0.15922E-01   -0.42859E-03 28814   0.200E-01    0.231E+00
RMM: 332    -0.239717182834E+03    0.38985E-02   -0.69882E-04 29263   0.836E-02    0.230E+00
RMM: 333    -0.239739150868E+03   -0.21968E-01   -0.77529E-03 28808   0.273E-01    0.215E+00
RMM: 334    -0.239745743173E+03   -0.65923E-02   -0.50460E-03 28845   0.225E-01    0.232E+00
RMM: 335    -0.239749168178E+03   -0.34250E-02   -0.28874E-03 29046   0.169E-01    0.242E+00
RMM: 336    -0.239749644204E+03   -0.47603E-03   -0.23110E-04 29412   0.489E-02    0.243E+00
RMM: 337    -0.239750218096E+03   -0.57389E-03   -0.25227E-04 28800   0.546E-02    0.243E+00
RMM: 338    -0.239729792138E+03    0.20426E-01   -0.18262E-02 28800   0.420E-01    0.200E+00
RMM: 339    -0.239742117549E+03   -0.12325E-01   -0.35602E-03 28800   0.183E-01    0.210E+00
RMM: 340    -0.239745106279E+03   -0.29887E-02   -0.74040E-04 28813   0.844E-02    0.218E+00
RMM: 341    -0.239743985542E+03    0.11207E-02   -0.16569E-04 28983   0.422E-02    0.213E+00
RMM: 342    -0.239744069161E+03   -0.83618E-04   -0.47956E-06 22022   0.756E-03    0.213E+00
RMM: 343    -0.239751666867E+03   -0.75977E-02   -0.17031E-02 28800   0.399E-01    0.251E+00
RMM: 344    -0.239752399446E+03   -0.73258E-03   -0.69454E-04 28917   0.851E-02    0.252E+00
RMM: 345    -0.239732028598E+03    0.20371E-01   -0.26833E-02 28800   0.491E-01    0.205E+00
RMM: 346    -0.239714784802E+03    0.17244E-01   -0.10599E-02 28801   0.316E-01    0.203E+00
RMM: 347    -0.239688436097E+03    0.26349E-01   -0.11583E-02 28801   0.328E-01    0.203E+00
RMM: 348    -0.239709069383E+03   -0.20633E-01   -0.15538E-02 28800   0.378E-01    0.247E+00
RMM: 349    -0.239675907825E+03    0.33162E-01   -0.15569E-02 28837   0.385E-01    0.264E+00
RMM: 350    -0.239648232285E+03    0.27676E-01   -0.11770E-02 28823   0.333E-01    0.273E+00
RMM: 351    -0.239653700844E+03   -0.54686E-02   -0.35720E-04 30231   0.615E-02    0.270E+00
RMM: 352    -0.239710352223E+03   -0.56651E-01   -0.61615E-02 28802   0.753E-01    0.229E+00
RMM: 353    -0.239716876298E+03   -0.65241E-02   -0.64217E-02 28958   0.759E-01    0.274E+00
RMM: 354    -0.239718738857E+03   -0.18626E-02   -0.46234E-03 29803   0.203E-01    0.281E+00
RMM: 355    -0.239719268034E+03   -0.52918E-03   -0.39836E-04 28974   0.588E-02    0.274E+00
RMM: 356    -0.239718641198E+03    0.62684E-03   -0.50798E-05 29650   0.195E-02    0.278E+00
RMM: 357    -0.239719003196E+03   -0.36200E-03   -0.72649E-05 28159   0.248E-02    0.279E+00
RMM: 358    -0.240185146629E+03   -0.46614E+00   -0.39138E-01 28819   0.178E+00    0.212E+01
RMM: 359    -0.239777144506E+03    0.40800E+00   -0.73789E-02 28800   0.780E-01    0.852E+00
RMM: 360    -0.239886328780E+03   -0.10918E+00   -0.82196E-03 28859   0.278E-01    0.128E+01
RMM: 361    -0.239862644569E+03    0.23684E-01   -0.31767E-04 29519   0.638E-02    0.121E+01
RMM: 362    -0.239859441347E+03    0.32032E-02   -0.38388E-04 29097   0.612E-02    0.123E+01
RMM: 363    -0.239822977075E+03    0.36464E-01   -0.14805E-03 28810   0.110E-01    0.121E+01
RMM: 364    -0.239823041395E+03   -0.64319E-04   -0.60850E-04 28800   0.739E-02    0.116E+01
RMM: 365    -0.239818180783E+03    0.48606E-02   -0.61551E-05 28353   0.265E-02    0.114E+01
RMM: 366    -0.239784452295E+03    0.33728E-01   -0.25078E-03 28820   0.156E-01    0.976E+00
RMM: 367    -0.239904315586E+03   -0.11986E+00   -0.10620E-02 28800   0.302E-01    0.138E+01
RMM: 368    -0.239827264344E+03    0.77051E-01   -0.38661E-03 28841   0.191E-01    0.119E+01
RMM: 369    -0.239767232697E+03    0.60032E-01   -0.44596E-03 28800   0.198E-01    0.980E+00
RMM: 370    -0.239698824728E+03    0.68408E-01   -0.12232E-02 28804   0.328E-01    0.626E+00
RMM: 371    -0.239684394867E+03    0.14430E-01   -0.23295E-02 28907   0.468E-01    0.303E+00
RMM: 372    -0.239695465209E+03   -0.11070E-01   -0.16335E-02 28975   0.407E-01    0.257E+00
RMM: 373    -0.239705142574E+03   -0.96774E-02   -0.19828E-03 28842   0.143E-01    0.256E+00
RMM: 374    -0.239725333428E+03   -0.20191E-01   -0.19102E-03 28882   0.132E-01    0.249E+00
RMM: 375    -0.239768288426E+03   -0.42955E-01   -0.12118E-02 28846   0.318E-01    0.230E+00
RMM: 376    -0.239789385885E+03   -0.21097E-01   -0.10186E-02 29023   0.310E-01    0.268E+00
RMM: 377    -0.239774123866E+03    0.15262E-01   -0.12714E-02 28852   0.356E-01    0.284E+00
RMM: 378    -0.239778305646E+03   -0.41818E-02   -0.89914E-04 29423   0.981E-02    0.302E+00
RMM: 379    -0.239749873833E+03    0.28432E-01   -0.13052E-02 28800   0.346E-01    0.278E+00
RMM: 380    -0.239728437380E+03    0.21436E-01   -0.12068E-02 28801   0.333E-01    0.269E+00
RMM: 381    -0.239710699653E+03    0.17738E-01   -0.72853E-03 29020   0.261E-01    0.282E+00
RMM: 382    -0.239731302409E+03   -0.20603E-01   -0.48884E-03 28800   0.215E-01    0.258E+00
RMM: 383    -0.239769121754E+03   -0.37819E-01   -0.23722E-02 28800   0.452E-01    0.263E+00
RMM: 384    -0.239776379338E+03   -0.72576E-02   -0.27066E-03 28921   0.155E-01    0.280E+00
RMM: 385    -0.239763475291E+03    0.12904E-01   -0.18699E-03 28800   0.126E-01    0.263E+00
RMM: 386    -0.239763068479E+03    0.40681E-03   -0.52693E-05 28361   0.231E-02    0.262E+00
RMM: 387    -0.239757086030E+03    0.59824E-02   -0.90896E-04 28802   0.930E-02    0.265E+00
RMM: 388    -0.239752163608E+03    0.49224E-02   -0.95233E-04 28802   0.946E-02    0.244E+00
RMM: 389    -0.239754194699E+03   -0.20311E-02   -0.38611E-04 28897   0.648E-02    0.263E+00
RMM: 390    -0.239751044604E+03    0.31501E-02   -0.16410E-04 28800   0.425E-02    0.251E+00
RMM: 391    -0.239750056732E+03    0.98787E-03   -0.15808E-04 28960   0.439E-02    0.257E+00
RMM: 392    -0.239745740113E+03    0.43166E-02   -0.85138E-04 28800   0.945E-02    0.256E+00
RMM: 393    -0.239745253719E+03    0.48639E-03   -0.34782E-03 28811   0.189E-01    0.305E+00
RMM: 394    -0.239734312248E+03    0.10941E-01   -0.10975E-03 28800   0.106E-01    0.288E+00
RMM: 395    -0.239730804001E+03    0.35082E-02   -0.40335E-04 29079   0.633E-02    0.278E+00
RMM: 396    -0.239732251068E+03   -0.14471E-02   -0.37068E-04 29157   0.624E-02    0.279E+00
RMM: 397    -0.239731704568E+03    0.54650E-03   -0.12282E-04 29105   0.353E-02    0.289E+00
RMM: 398    -0.239735701542E+03   -0.39970E-02   -0.46104E-04 28800   0.697E-02    0.294E+00
RMM: 399    -0.239736965242E+03   -0.12637E-02   -0.55381E-05 28505   0.243E-02    0.294E+00
RMM: 400    -0.239739331138E+03   -0.23659E-02   -0.12493E-04 28490   0.349E-02    0.297E+00
RMM: 401    -0.239740548195E+03   -0.12171E-02   -0.18379E-04 28706   0.477E-02    0.288E+00
RMM: 402    -0.239740424953E+03    0.12324E-03   -0.19123E-04 28897   0.489E-02    0.285E+00
RMM: 403    -0.239750279781E+03   -0.98548E-02   -0.47312E-03 28812   0.230E-01    0.318E+00
RMM: 404    -0.239743266707E+03    0.70131E-02   -0.52692E-04 29023   0.782E-02    0.305E+00
RMM: 405    -0.239738254755E+03    0.50120E-02   -0.32116E-04 29242   0.578E-02    0.291E+00
RMM: 406    -0.239734794755E+03    0.34600E-02   -0.24516E-04 29195   0.513E-02    0.293E+00
RMM: 407    -0.239729640356E+03    0.51544E-02   -0.33883E-04 28872   0.594E-02    0.294E+00
RMM: 408    -0.239717244376E+03    0.12396E-01   -0.29410E-03 28800   0.171E-01    0.286E+00
RMM: 409    -0.239717766223E+03   -0.52185E-03   -0.10965E-04 29259   0.347E-02    0.287E+00
RMM: 410    -0.239718235953E+03   -0.46973E-03   -0.18143E-05 27659   0.139E-02    0.288E+00
RMM: 411    -0.239718091270E+03    0.14468E-03   -0.15101E-05 27398   0.125E-02    0.289E+00
RMM: 412    -0.239720058871E+03   -0.19676E-02   -0.66772E-05 28863   0.267E-02    0.287E+00
RMM: 413    -0.239748142679E+03   -0.28084E-01   -0.80644E-02 28800   0.934E-01    0.131E+00
RMM: 414    -0.239755532413E+03   -0.73897E-02   -0.47221E-03 29242   0.240E-01    0.118E+00
RMM: 415    -0.239762809330E+03   -0.72769E-02   -0.43351E-03 28800   0.222E-01    0.103E+00
RMM: 416    -0.239761598949E+03    0.12104E-02   -0.12118E-02 28949   0.345E-01    0.116E+00
RMM: 417    -0.239755990045E+03    0.56089E-02   -0.22336E-03 29674   0.155E-01    0.121E+00
RMM: 418    -0.239744834239E+03    0.11156E-01   -0.24727E-03 29350   0.166E-01    0.143E+00
RMM: 419    -0.239731494943E+03    0.13339E-01   -0.28596E-03 29221   0.178E-01    0.171E+00
RMM: 420    -0.239731616828E+03   -0.12188E-03   -0.14183E-04 30203   0.365E-02    0.171E+00
RMM: 421    -0.239731921746E+03   -0.30492E-03   -0.31822E-05 29055   0.170E-02    0.171E+00
RMM: 422    -0.239731802472E+03    0.11927E-03   -0.12931E-04 29365   0.348E-02    0.169E+00
RMM: 423    -0.239749072513E+03   -0.17270E-01   -0.59753E-03 29122   0.256E-01    0.128E+00
RMM: 424    -0.239748353034E+03    0.71948E-03   -0.43658E-04 29122   0.676E-02    0.135E+00
RMM: 425    -0.239750583740E+03   -0.22307E-02   -0.24360E-04 29588   0.497E-02    0.134E+00
RMM: 426    -0.239752608835E+03   -0.20251E-02   -0.39153E-04 29383   0.679E-02    0.130E+00
RMM: 427    -0.239750687532E+03    0.19213E-02   -0.43698E-04 29679   0.723E-02    0.136E+00
RMM: 428    -0.239742250549E+03    0.84370E-02   -0.25006E-03 29045   0.155E-01    0.160E+00
RMM: 429    -0.239740523676E+03    0.17269E-02   -0.90423E-04 29489   0.977E-02    0.166E+00
RMM: 430    -0.239740533575E+03   -0.98987E-05   -0.57302E-05 30258   0.235E-02    0.166E+00
RMM: 431    -0.239740617708E+03   -0.84133E-04   -0.44646E-06 21456   0.624E-03    0.166E+00
RMM: 432    -0.239740725106E+03   -0.10740E-03   -0.24981E-06 18208   0.474E-03    0.165E+00
RMM: 433    -0.239739846536E+03    0.87857E-03   -0.25619E-04 28974   0.491E-02    0.162E+00
RMM: 434    -0.239739454728E+03    0.39181E-03   -0.11413E-05 26540   0.106E-02    0.162E+00
RMM: 435    -0.239739452007E+03    0.27212E-05   -0.73689E-07 16448   0.327E-03    0.162E+00
RMM: 436    -0.239739928261E+03   -0.47625E-03   -0.19740E-06 17286   0.429E-03    0.161E+00
RMM: 437    -0.239740196310E+03   -0.26805E-03   -0.14661E-06 17040   0.390E-03    0.161E+00
RMM: 438    -0.239751339937E+03   -0.11144E-01   -0.14447E-03 28900   0.115E-01    0.144E+00
RMM: 439    -0.239755460908E+03   -0.41210E-02   -0.13095E-03 29051   0.120E-01    0.141E+00
RMM: 440    -0.239758479504E+03   -0.30186E-02   -0.74740E-04 29417   0.879E-02    0.135E+00
RMM: 441    -0.239758014817E+03    0.46469E-03   -0.35345E-04 28899   0.599E-02    0.132E+00
RMM: 442    -0.239756496984E+03    0.15178E-02   -0.47798E-04 28807   0.689E-02    0.126E+00
RMM: 443    -0.239751511153E+03    0.49858E-02   -0.39632E-03 28800   0.178E-01    0.996E-01
RMM: 444    -0.239749712354E+03    0.17988E-02   -0.86491E-04 28888   0.874E-02    0.922E-01
RMM: 445    -0.239746924687E+03    0.27877E-02   -0.23084E-03 28816   0.134E-01    0.790E-01
RMM: 446    -0.239744557333E+03    0.23674E-02   -0.27889E-03 28802   0.150E-01    0.720E-01
RMM: 447    -0.239744131844E+03    0.42549E-03   -0.57020E-04 28864   0.703E-02    0.693E-01
RMM: 448    -0.239743701888E+03    0.42996E-03   -0.60236E-04 28804   0.728E-02    0.693E-01
RMM: 449    -0.239743554712E+03    0.14718E-03   -0.10520E-04 29473   0.329E-02    0.707E-01
RMM: 450    -0.239743681240E+03   -0.12653E-03   -0.40624E-05 29316   0.201E-02    0.709E-01
RMM: 451    -0.239744031298E+03   -0.35006E-03   -0.50318E-05 29265   0.233E-02    0.709E-01
RMM: 452    -0.239744079921E+03   -0.48623E-04   -0.38660E-05 28951   0.200E-02    0.724E-01
RMM: 453    -0.239744266310E+03   -0.18639E-03   -0.46270E-05 29367   0.220E-02    0.743E-01
RMM: 454    -0.239744512098E+03   -0.24579E-03   -0.64601E-05 29244   0.244E-02    0.763E-01
RMM: 455    -0.239744613582E+03   -0.10148E-03   -0.21521E-05 28930   0.150E-02    0.774E-01
RMM: 456    -0.239744679584E+03   -0.66002E-04   -0.15226E-05 28789   0.119E-02    0.787E-01
RMM: 457    -0.239744718549E+03   -0.38965E-04   -0.45323E-06 22416   0.721E-03    0.792E-01
RMM: 458    -0.239744672786E+03    0.45763E-04   -0.70300E-07 16260   0.300E-03    0.794E-01
RMM: 459    -0.239744662638E+03    0.10148E-04   -0.82123E-07 16287   0.307E-03    0.798E-01
RMM: 460    -0.239744661286E+03    0.13518E-05   -0.15000E-07 15943   0.145E-03    0.798E-01
RMM: 461    -0.239744680788E+03   -0.19502E-04   -0.59841E-08 15225   0.887E-04    0.797E-01
RMM: 462    -0.239744727407E+03   -0.46619E-04   -0.19697E-06 17176   0.483E-03    0.790E-01
RMM: 463    -0.239743545980E+03    0.11814E-02   -0.22445E-03 28937   0.141E-01    0.645E-01
RMM: 464    -0.239743611174E+03   -0.65194E-04   -0.12075E-04 29030   0.406E-02    0.639E-01
RMM: 465    -0.239743960737E+03   -0.34956E-03   -0.41295E-05 29558   0.210E-02    0.622E-01
RMM: 466    -0.239744275337E+03   -0.31460E-03   -0.35511E-05 28769   0.209E-02    0.608E-01
RMM: 467    -0.239744554915E+03   -0.27958E-03   -0.30790E-05 28988   0.184E-02    0.596E-01
RMM: 468    -0.239744691626E+03   -0.13671E-03   -0.10549E-05 27521   0.110E-02    0.593E-01
RMM: 469    -0.239744853931E+03   -0.16230E-03   -0.96377E-06 27346   0.995E-03    0.585E-01
RMM: 470    -0.239744993580E+03   -0.13965E-03   -0.70749E-06 25458   0.890E-03    0.579E-01
RMM: 471    -0.239745205467E+03   -0.21189E-03   -0.14765E-05 28189   0.123E-02    0.568E-01
RMM: 472    -0.239745497730E+03   -0.29226E-03   -0.28012E-05 28905   0.174E-02    0.554E-01
RMM: 473    -0.239748589641E+03   -0.30919E-02   -0.19814E-02 29086   0.452E-01    0.874E-01
RMM: 474    -0.239748834196E+03   -0.24455E-03   -0.58016E-04 29877   0.857E-02    0.756E-01
RMM: 475    -0.239748744979E+03    0.89217E-04   -0.51568E-05 29716   0.231E-02    0.715E-01
RMM: 476    -0.239748630045E+03    0.11493E-03   -0.35494E-05 29016   0.202E-02    0.667E-01
RMM: 477    -0.239748535765E+03    0.94280E-04   -0.60434E-05 29454   0.258E-02    0.601E-01
RMM: 478    -0.239748007214E+03    0.52855E-03   -0.29910E-03 29193   0.176E-01    0.150E-01
RMM: 479    -0.239748106150E+03   -0.98936E-04   -0.20237E-04 29567   0.471E-02    0.155E-01
RMM: 480    -0.239748173017E+03   -0.66867E-04   -0.33507E-05 29396   0.197E-02    0.165E-01
RMM: 481    -0.239748254879E+03   -0.81862E-04   -0.46896E-05 28845   0.240E-02    0.157E-01
RMM: 482    -0.239748349442E+03   -0.94564E-04   -0.60503E-05 28868   0.278E-02    0.172E-01
RMM: 483    -0.239748440143E+03   -0.90701E-04   -0.58113E-05 28620   0.272E-02    0.181E-01
RMM: 484    -0.239748498835E+03   -0.58692E-04   -0.44885E-05 28501   0.241E-02    0.184E-01
RMM: 485    -0.239748553111E+03   -0.54277E-04   -0.47496E-05 28540   0.248E-02    0.182E-01
RMM: 486    -0.239748581945E+03   -0.28834E-04   -0.26398E-05 27792   0.185E-02    0.177E-01
RMM: 487    -0.239748605140E+03   -0.23195E-04   -0.21938E-05 27215   0.168E-02    0.168E-01
RMM: 488    -0.239748611788E+03   -0.66481E-05   -0.62179E-06 22086   0.911E-03    0.161E-01
RMM: 489    -0.239748619235E+03   -0.74465E-05   -0.42015E-06 20402   0.739E-03    0.150E-01
RMM: 490    -0.239748624452E+03   -0.52175E-05   -0.37461E-06 20316   0.699E-03    0.141E-01
RMM: 491    -0.239748631880E+03   -0.74273E-05   -0.60171E-06 23739   0.834E-03    0.129E-01
RMM: 492    -0.239748640203E+03   -0.83232E-05   -0.13897E-05 27119   0.130E-02    0.109E-01
RMM: 493    -0.239748645328E+03   -0.51254E-05   -0.11832E-05 27477   0.121E-02    0.893E-02
RMM: 494    -0.239748649512E+03   -0.41840E-05   -0.94230E-06 27071   0.107E-02    0.719E-02
RMM: 495    -0.239748653636E+03   -0.41241E-05   -0.12120E-05 27645   0.122E-02    0.523E-02
RMM: 496    -0.239748656736E+03   -0.30998E-05   -0.11747E-05 27249   0.120E-02    0.339E-02
RMM: 497    -0.239748658558E+03   -0.18221E-05   -0.79885E-06 25972   0.995E-03    0.197E-02
RMM: 498    -0.239748659126E+03   -0.56729E-06   -0.55764E-06 23930   0.812E-03
   1 F= -.24755489E+03 E0= -.24755489E+03  d E =-.247555E+03  mag=     6.0000
 curvature:   0.00 expect dE= 0.000E+00 dE for cont linesearch  0.000E+00
 trial: gam= 0.00000 g(F)=  0.425E+00 g(S)=  0.148E-01 ort = 0.000E+00 (trialstep = 0.100E+01)
 search vector abs. value=  0.440E+00
 bond charge predicted
       N       E                     dE             d eps       ncg     rms          rms(c)
RMM:   1    -0.240240239784E+03   -0.49158E+00   -0.11295E+02 28800   0.256E+01    0.247E+00
RMM:   2    -0.240303949235E+03   -0.63709E-01   -0.32731E+00 28805   0.806E+00    0.620E+00
RMM:   3    -0.240045072992E+03    0.25888E+00   -0.23577E-01 28854   0.184E+00    0.326E+00
RMM:   4    -0.240047892532E+03   -0.28195E-02   -0.12237E-02 31804   0.319E-01    0.331E+00
RMM:   5    -0.240048720691E+03   -0.82816E-03   -0.89726E-04 31999   0.102E-01    0.330E+00
RMM:   6    -0.240043594176E+03    0.51265E-02   -0.45295E-03 28807   0.218E-01    0.244E+00
RMM:   7    -0.240020933488E+03    0.22661E-01   -0.41075E-02 28846   0.620E-01    0.124E+00
RMM:   8    -0.240013083354E+03    0.78501E-02   -0.13015E-02 29161   0.372E-01    0.106E+00
RMM:   9    -0.240010736960E+03    0.23464E-02   -0.20816E-03 30305   0.125E-01    0.904E-01
RMM:  10    -0.240008819902E+03    0.19171E-02   -0.17436E-03 28814   0.121E-01    0.640E-01
RMM:  11    -0.240007376331E+03    0.14436E-02   -0.25105E-03 28972   0.141E-01    0.366E-01
RMM:  12    -0.240007186557E+03    0.18977E-03   -0.13100E-03 29207   0.112E-01    0.247E-01
RMM:  13    -0.240007393530E+03   -0.20697E-03   -0.63023E-04 29170   0.822E-02    0.201E-01
RMM:  14    -0.240007572439E+03   -0.17891E-03   -0.68401E-04 28899   0.827E-02    0.904E-02
RMM:  15    -0.240007825886E+03   -0.25345E-03   -0.43999E-04 28991   0.666E-02    0.740E-02
RMM:  16    -0.240007943162E+03   -0.11728E-03   -0.83015E-05 28800   0.320E-02    0.530E-02
RMM:  17    -0.240008176516E+03   -0.23335E-03   -0.21398E-04 28800   0.498E-02    0.602E-02
RMM:  18    -0.240008346086E+03   -0.16957E-03   -0.16705E-04 28800   0.464E-02    0.660E-02
RMM:  19    -0.240008490652E+03   -0.14457E-03   -0.26960E-04 28800   0.592E-02    0.574E-02
RMM:  20    -0.240008500748E+03   -0.10095E-04   -0.18409E-04 28800   0.453E-02    0.151E-02
RMM:  21    -0.240008504795E+03   -0.40473E-05   -0.17880E-05 28321   0.147E-02    0.115E-02
RMM:  22    -0.240008507021E+03   -0.22260E-05   -0.42192E-06 21165   0.742E-03    0.895E-03
RMM:  23    -0.240008509799E+03   -0.27782E-05   -0.76907E-06 26050   0.876E-03    0.897E-03
RMM:  24    -0.240008512015E+03   -0.22160E-05   -0.31186E-06 19190   0.638E-03    0.109E-02
RMM:  25    -0.240008513627E+03   -0.16115E-05   -0.16861E-06 17114   0.491E-03    0.730E-03
RMM:  26    -0.240008515052E+03   -0.14247E-05   -0.95392E-07 16296   0.330E-03    0.595E-03
RMM:  27    -0.240008517148E+03   -0.20969E-05   -0.11632E-06 16562   0.385E-03    0.571E-03
RMM:  28    -0.240008519835E+03   -0.26866E-05   -0.24067E-06 18057   0.523E-03    0.508E-03
RMM:  29    -0.240008521629E+03   -0.17943E-05   -0.19347E-06 17289   0.461E-03    0.429E-03
RMM:  30    -0.240008523324E+03   -0.16946E-05   -0.25595E-06 17972   0.534E-03    0.387E-03
RMM:  31    -0.240008524403E+03   -0.10788E-05   -0.23567E-06 17618   0.513E-03    0.311E-03
RMM:  32    -0.240008525015E+03   -0.61236E-06   -0.22539E-06 17653   0.494E-03
   2 F= -.24779314E+03 E0= -.24779314E+03  d E =-.238253E+00  mag=     6.0000
 trial-energy change:   -0.238253  1 .order   -0.238706   -0.440096   -0.037317
 step:   1.0926(harm=  1.0926)  dis= 0.03531  next Energy=  -247.795324 (dE=-0.240E+00)
 bond charge predicted
       N       E                     dE             d eps       ncg     rms          rms(c)
RMM:   1    -0.240013655588E+03   -0.51312E-02   -0.96684E-01 28800   0.240E+00    0.225E-01
RMM:   2    -0.240014437835E+03   -0.78225E-03   -0.28269E-02 28801   0.774E-01    0.554E-01
RMM:   3    -0.240012530873E+03    0.19070E-02   -0.19804E-03 28937   0.166E-01    0.294E-01
RMM:   4    -0.240012543139E+03   -0.12267E-04   -0.90062E-05 31629   0.278E-02    0.296E-01
RMM:   5    -0.240012530987E+03    0.12153E-04   -0.11082E-05 26539   0.110E-02    0.277E-01
RMM:   6    -0.240012574237E+03   -0.43250E-04   -0.42969E-04 28801   0.677E-02    0.166E-01
RMM:   7    -0.240012394191E+03    0.18005E-03   -0.21443E-04 28827   0.509E-02    0.101E-01
RMM:   8    -0.240012355835E+03    0.38356E-04   -0.31283E-05 28704   0.176E-02    0.900E-02
RMM:   9    -0.240012317238E+03    0.38597E-04   -0.46356E-05 28669   0.190E-02    0.611E-02
RMM:  10    -0.240012301530E+03    0.15708E-04   -0.21771E-05 28406   0.139E-02    0.414E-02
RMM:  11    -0.240012299105E+03    0.24250E-05   -0.73777E-06 26988   0.829E-03    0.325E-02
RMM:  12    -0.240012299839E+03   -0.73393E-06   -0.31151E-06 19772   0.627E-03
   3 F= -.24779492E+03 E0= -.24779492E+03  d E =-.240027E+00  mag=     6.0000
 curvature:  -0.55 expect dE=-0.262E-01 dE for cont linesearch -0.294E-05
 trial: gam= 0.10528 g(F)=  0.420E-01 g(S)=  0.592E-02 ort = 0.154E-02 (trialstep = 0.102E+01)
 search vector abs. value=  0.531E-01
 bond charge predicted
       N       E                     dE             d eps       ncg     rms          rms(c)
RMM:   1    -0.240022558273E+03   -0.10259E-01   -0.97999E+00 28814   0.786E+00    0.117E+00
RMM:   2    -0.240010052271E+03    0.12506E-01   -0.23073E-01 28800   0.225E+00    0.118E+00
RMM:   3    -0.240006991143E+03    0.30611E-02   -0.20527E-02 29432   0.505E-01    0.790E-01
RMM:   4    -0.240005232457E+03    0.17587E-02   -0.14513E-02 28805   0.339E-01    0.578E-01
RMM:   5    -0.240004309000E+03    0.92346E-03   -0.86107E-03 28926   0.302E-01    0.371E-01
RMM:   6    -0.240003349053E+03    0.95995E-03   -0.29113E-03 28812   0.180E-01    0.170E-01
RMM:   7    -0.240003113317E+03    0.23574E-03   -0.92900E-04 28800   0.110E-01    0.950E-02
RMM:   8    -0.240003102403E+03    0.10913E-04   -0.13228E-04 28806   0.397E-02    0.574E-02
RMM:   9    -0.240003109301E+03   -0.68973E-05   -0.48552E-05 28744   0.241E-02    0.391E-02
RMM:  10    -0.240003121219E+03   -0.11918E-04   -0.15446E-05 27878   0.139E-02    0.287E-02
RMM:  11    -0.240003149707E+03   -0.28488E-04   -0.15576E-05 28241   0.140E-02    0.227E-02
RMM:  12    -0.240003170355E+03   -0.20648E-04   -0.13638E-05 27311   0.137E-02    0.210E-02
RMM:  13    -0.240003185920E+03   -0.15565E-04   -0.95175E-06 26366   0.111E-02    0.158E-02
RMM:  14    -0.240003213158E+03   -0.27238E-04   -0.26465E-05 28303   0.177E-02    0.129E-02
RMM:  15    -0.240003231788E+03   -0.18629E-04   -0.31152E-05 28060   0.198E-02    0.924E-03
RMM:  16    -0.240003235392E+03   -0.36045E-05   -0.64019E-06 22759   0.905E-03    0.676E-03
RMM:  17    -0.240003238523E+03   -0.31308E-05   -0.54176E-06 21957   0.812E-03    0.531E-03
RMM:  18    -0.240003240150E+03   -0.16271E-05   -0.37970E-06 19880   0.700E-03    0.422E-03
RMM:  19    -0.240003240373E+03   -0.22273E-06   -0.11591E-06 16565   0.402E-03
   4 F= -.24781426E+03 E0= -.24781426E+03  d E =-.193400E-01  mag=     6.0000
 trial-energy change:   -0.019340  1 .order   -0.019235   -0.048925    0.010456
 step:   0.8408(harm=  0.8392)  dis= 0.00864  next Energy=  -247.815168 (dE=-0.203E-01)
 bond charge predicted
       N       E                     dE             d eps       ncg     rms          rms(c)
RMM:   1    -0.240009676949E+03   -0.64368E-02   -0.29867E-01 28814   0.137E+00    0.205E-01
RMM:   2    -0.240009285667E+03    0.39128E-03   -0.65858E-03 28802   0.378E-01    0.192E-01
RMM:   3    -0.240009234007E+03    0.51661E-04   -0.58324E-04 29569   0.833E-02    0.136E-01
RMM:   4    -0.240009190173E+03    0.43834E-04   -0.49073E-04 28804   0.636E-02    0.110E-01
RMM:   5    -0.240009132753E+03    0.57419E-04   -0.26256E-04 28973   0.530E-02    0.566E-02
RMM:   6    -0.240009111311E+03    0.21443E-04   -0.69715E-05 28773   0.279E-02    0.278E-02
RMM:   7    -0.240009104514E+03    0.67967E-05   -0.27862E-05 27097   0.194E-02    0.161E-02
RMM:   8    -0.240009104107E+03    0.40691E-06   -0.47261E-06 24719   0.706E-03
   5 F= -.24781515E+03 E0= -.24781515E+03  d E =-.202342E-01  mag=     6.0000
 curvature:  -0.46 expect dE=-0.103E-01 dE for cont linesearch -0.163E-07
 trial: gam= 0.46056 g(F)=  0.182E-01 g(S)=  0.410E-02 ort =-0.432E-04 (trialstep = 0.983E+00)
 search vector abs. value=  0.335E-01
 bond charge predicted
       N       E                     dE             d eps       ncg     rms          rms(c)
RMM:   1    -0.240045360934E+03   -0.36256E-01   -0.31128E+00 28825   0.444E+00    0.507E-01
RMM:   2    -0.240038582428E+03    0.67785E-02   -0.60596E-02 28812   0.114E+00    0.417E-01
RMM:   3    -0.240038314895E+03    0.26753E-03   -0.45742E-03 30098   0.236E-01    0.287E-01
RMM:   4    -0.240037915280E+03    0.39962E-03   -0.24679E-03 28835   0.145E-01    0.213E-01
RMM:   5    -0.240037716596E+03    0.19868E-03   -0.10666E-03 28922   0.109E-01    0.133E-01
RMM:   6    -0.240037628392E+03    0.88204E-04   -0.34421E-04 29119   0.638E-02    0.714E-02
RMM:   7    -0.240037595572E+03    0.32820E-04   -0.12261E-04 28856   0.388E-02    0.377E-02
RMM:   8    -0.240037596358E+03   -0.78669E-06   -0.31675E-05 28827   0.174E-02    0.265E-02
RMM:   9    -0.240037594763E+03    0.15957E-05   -0.12448E-05 26743   0.127E-02    0.160E-02
RMM:  10    -0.240037596765E+03   -0.20021E-05   -0.35324E-06 21618   0.670E-03    0.110E-02
RMM:  11    -0.240037598964E+03   -0.21998E-05   -0.15829E-06 16774   0.491E-03    0.726E-03
RMM:  12    -0.240037600520E+03   -0.15555E-05   -0.14712E-06 16973   0.442E-03    0.638E-03
RMM:  13    -0.240037601729E+03   -0.12091E-05   -0.11243E-06 16522   0.408E-03    0.466E-03
RMM:  14    -0.240037601961E+03   -0.23198E-06   -0.28505E-07 16126   0.203E-03
   6 F= -.24783266E+03 E0= -.24783266E+03  d E =-.175074E-01  mag=     6.0000
 trial-energy change:   -0.017507  1 .order   -0.017563   -0.021858   -0.013268
 step:   2.6813(harm=  2.5013)  dis= 0.02419  next Energy=  -247.843833 (dE=-0.287E-01)
 bond charge predicted
       N       E                     dE             d eps       ncg     rms          rms(c)
RMM:   1    -0.240090586379E+03   -0.52985E-01   -0.92882E+00 28821   0.767E+00    0.876E-01
RMM:   2    -0.240070781493E+03    0.19805E-01   -0.17743E-01 28814   0.194E+00    0.715E-01
RMM:   3    -0.240069411533E+03    0.13700E-02   -0.13529E-02 30005   0.405E-01    0.496E-01
RMM:   4    -0.240068337411E+03    0.10741E-02   -0.71634E-03 28849   0.262E-01    0.399E-01
RMM:   5    -0.240067622455E+03    0.71496E-03   -0.37117E-03 29037   0.199E-01    0.230E-01
RMM:   6    -0.240067360138E+03    0.26232E-03   -0.10852E-03 29036   0.113E-01    0.122E-01
RMM:   7    -0.240067255066E+03    0.10507E-03   -0.37746E-04 28878   0.681E-02    0.631E-02
RMM:   8    -0.240067256749E+03   -0.16828E-05   -0.10435E-04 28845   0.308E-02    0.449E-02
RMM:   9    -0.240067253766E+03    0.29827E-05   -0.36074E-05 28792   0.221E-02    0.280E-02
RMM:  10    -0.240067259647E+03   -0.58805E-05   -0.12203E-05 27394   0.123E-02    0.197E-02
RMM:  11    -0.240067266048E+03   -0.64008E-05   -0.54780E-06 25410   0.866E-03    0.131E-02
RMM:  12    -0.240067271781E+03   -0.57337E-05   -0.46722E-06 24437   0.770E-03    0.115E-02
RMM:  13    -0.240067275512E+03   -0.37312E-05   -0.31684E-06 20787   0.681E-03    0.866E-03
RMM:  14    -0.240067276518E+03   -0.10052E-05   -0.81787E-07 16270   0.351E-03    0.706E-03
RMM:  15    -0.240067278092E+03   -0.15746E-05   -0.79210E-07 16321   0.331E-03    0.641E-03
RMM:  16    -0.240067281943E+03   -0.38504E-05   -0.21833E-06 17936   0.536E-03    0.565E-03
RMM:  17    -0.240067284065E+03   -0.21221E-05   -0.12388E-06 16615   0.386E-03    0.510E-03
RMM:  18    -0.240067286966E+03   -0.29017E-05   -0.23063E-06 17871   0.528E-03    0.501E-03
RMM:  19    -0.240067291506E+03   -0.45394E-05   -0.95514E-06 23991   0.106E-02    0.405E-03
RMM:  20    -0.240067293138E+03   -0.16324E-05   -0.44553E-06 20015   0.742E-03    0.300E-03
RMM:  21    -0.240067293571E+03   -0.43257E-06   -0.83202E-07 15989   0.314E-03
   7 F= -.24784346E+03 E0= -.24784346E+03  d E =-.283048E-01  mag=     6.0000
 curvature:  -1.86 expect dE=-0.622E-01 dE for cont linesearch -0.375E-04
 trial: gam= 1.50740 g(F)=  0.199E-01 g(S)=  0.136E-01 ort =-0.822E-03 (trialstep = 0.413E+00)
 search vector abs. value=  0.107E+00
 bond charge predicted
       N       E                     dE             d eps       ncg     rms          rms(c)
RMM:   1    -0.240079266366E+03   -0.11973E-01   -0.85838E-01 28800   0.246E+00    0.514E-01
RMM:   2    -0.240076889607E+03    0.23768E-02   -0.17354E-02 29004   0.609E-01    0.398E-01
RMM:   3    -0.240076475903E+03    0.41370E-03   -0.46872E-03 29029   0.239E-01    0.367E-01
RMM:   4    -0.240075074536E+03    0.14014E-02   -0.23573E-03 28800   0.162E-01    0.173E-01
RMM:   5    -0.240074929140E+03    0.14540E-03   -0.90285E-04 28893   0.928E-02    0.117E-01
RMM:   6    -0.240074807766E+03    0.12137E-03   -0.25327E-04 28957   0.534E-02    0.465E-02
RMM:   7    -0.240074805350E+03    0.24158E-05   -0.51578E-05 28872   0.248E-02    0.306E-02
RMM:   8    -0.240074811417E+03   -0.60676E-05   -0.16590E-05 26931   0.149E-02    0.231E-02
RMM:   9    -0.240074819651E+03   -0.82336E-05   -0.64535E-06 25914   0.867E-03    0.175E-02
RMM:  10    -0.240074832340E+03   -0.12689E-04   -0.45100E-06 22281   0.787E-03    0.149E-02
RMM:  11    -0.240074852278E+03   -0.19937E-04   -0.12657E-05 26710   0.127E-02    0.120E-02
RMM:  12    -0.240074863326E+03   -0.11049E-04   -0.71784E-06 23698   0.982E-03    0.102E-02
RMM:  13    -0.240074874452E+03   -0.11126E-04   -0.94129E-06 26177   0.111E-02    0.854E-03
RMM:  14    -0.240074885935E+03   -0.11483E-04   -0.19047E-05 27470   0.158E-02    0.630E-03
RMM:  15    -0.240074889318E+03   -0.33837E-05   -0.66470E-06 22827   0.934E-03    0.469E-03
RMM:  16    -0.240074890407E+03   -0.10891E-05   -0.15178E-06 16967   0.458E-03    0.405E-03
RMM:  17    -0.240074891743E+03   -0.13354E-05   -0.16009E-06 17051   0.448E-03    0.320E-03
RMM:  18    -0.240074892214E+03   -0.47158E-06   -0.48494E-07 15868   0.247E-03
   8 F= -.24785485E+03 E0= -.24785485E+03  d E =-.113988E-01  mag=     6.0000
 trial-energy change:   -0.011399  1 .order   -0.011378   -0.013340   -0.009416
 step:   1.4056(harm=  1.4056)  dis= 0.02434  next Energy=  -247.866133 (dE=-0.227E-01)
 bond charge predicted
       N       E                     dE             d eps       ncg     rms          rms(c)
RMM:   1    -0.240102317912E+03   -0.27426E-01   -0.49419E+00 28800   0.589E+00    0.124E+00
RMM:   2    -0.240088762415E+03    0.13555E-01   -0.10138E-01 29004   0.147E+00    0.970E-01
RMM:   3    -0.240086082518E+03    0.26799E-02   -0.27352E-02 29040   0.576E-01    0.871E-01
RMM:   4    -0.240078112018E+03    0.79705E-02   -0.13377E-02 28800   0.385E-01    0.421E-01
RMM:   5    -0.240077293925E+03    0.81809E-03   -0.55791E-03 28866   0.230E-01    0.297E-01
RMM:   6    -0.240076508270E+03    0.78565E-03   -0.15448E-03 28949   0.132E-01    0.111E-01
RMM:   7    -0.240076493662E+03    0.14609E-04   -0.29801E-04 29483   0.596E-02    0.734E-02
RMM:   8    -0.240076529259E+03   -0.35598E-04   -0.96572E-05 28899   0.353E-02    0.557E-02
RMM:   9    -0.240076576715E+03   -0.47455E-04   -0.37853E-05 28790   0.211E-02    0.418E-02
RMM:  10    -0.240076650140E+03   -0.73425E-04   -0.27261E-05 28668   0.191E-02    0.354E-02
RMM:  11    -0.240076758834E+03   -0.10869E-03   -0.65972E-05 28798   0.296E-02    0.286E-02
RMM:  12    -0.240076825109E+03   -0.66275E-04   -0.43964E-05 28783   0.244E-02    0.239E-02
RMM:  13    -0.240076894044E+03   -0.68936E-04   -0.64024E-05 28800   0.295E-02    0.201E-02
RMM:  14    -0.240076950789E+03   -0.56745E-04   -0.93771E-05 28800   0.356E-02    0.149E-02
RMM:  15    -0.240076969334E+03   -0.18545E-04   -0.36452E-05 28746   0.219E-02    0.110E-02
RMM:  16    -0.240076975740E+03   -0.64055E-05   -0.96144E-06 25126   0.112E-02    0.946E-03
RMM:  17    -0.240076982942E+03   -0.72020E-05   -0.10144E-05 25802   0.116E-02    0.765E-03
RMM:  18    -0.240076985451E+03   -0.25090E-05   -0.26363E-06 18536   0.611E-03    0.614E-03
RMM:  19    -0.240076987357E+03   -0.19060E-05   -0.10988E-06 16487   0.383E-03    0.546E-03
RMM:  20    -0.240076990580E+03   -0.32233E-05   -0.21298E-06 17746   0.505E-03    0.505E-03
RMM:  21    -0.240076992977E+03   -0.23966E-05   -0.18417E-06 17201   0.464E-03    0.460E-03
RMM:  22    -0.240076994970E+03   -0.19933E-05   -0.17264E-06 17107   0.441E-03    0.394E-03
RMM:  23    -0.240076997377E+03   -0.24076E-05   -0.29804E-06 18548   0.559E-03    0.333E-03
RMM:  24    -0.240077000349E+03   -0.29711E-05   -0.93459E-06 22607   0.100E-02    0.254E-03
RMM:  25    -0.240077001152E+03   -0.80355E-06   -0.28971E-06 18031   0.597E-03
   9 F= -.24786626E+03 E0= -.24786626E+03  d E =-.228044E-01  mag=     6.0000
 curvature:  -2.33 expect dE=-0.544E-01 dE for cont linesearch -0.223E-06
 trial: gam= 0.64622 g(F)=  0.220E-01 g(S)=  0.129E-02 ort = 0.101E-03 (trialstep = 0.612E+00)
 search vector abs. value=  0.682E-01
 bond charge predicted
       N       E                     dE             d eps       ncg     rms          rms(c)
RMM:   1    -0.240091886176E+03   -0.14886E-01   -0.22092E+00 28800   0.366E+00    0.380E-01
RMM:   2    -0.240088135751E+03    0.37504E-02   -0.33525E-02 28898   0.845E-01    0.287E-01
RMM:   3    -0.240088104478E+03    0.31272E-04   -0.24042E-03 30030   0.183E-01    0.222E-01
RMM:   4    -0.240087907521E+03    0.19696E-03   -0.12032E-03 28939   0.114E-01    0.181E-01
RMM:   5    -0.240087674304E+03    0.23322E-03   -0.64684E-04 28895   0.826E-02    0.768E-02
RMM:   6    -0.240087668057E+03    0.62474E-05   -0.15645E-04 29330   0.429E-02    0.466E-02
RMM:   7    -0.240087662528E+03    0.55287E-05   -0.29206E-05 28792   0.194E-02    0.263E-02
RMM:   8    -0.240087678174E+03   -0.15646E-04   -0.86372E-06 26636   0.103E-02    0.228E-02
RMM:   9    -0.240087705117E+03   -0.26944E-04   -0.14888E-05 27716   0.140E-02    0.197E-02
RMM:  10    -0.240087718432E+03   -0.13315E-04   -0.79404E-06 25916   0.104E-02    0.163E-02
RMM:  11    -0.240087739430E+03   -0.20998E-04   -0.13927E-05 27139   0.130E-02    0.139E-02
RMM:  12    -0.240087752498E+03   -0.13068E-04   -0.97074E-06 25987   0.115E-02    0.116E-02
RMM:  13    -0.240087768896E+03   -0.16398E-04   -0.22027E-05 27368   0.169E-02    0.792E-03
RMM:  14    -0.240087775536E+03   -0.66401E-05   -0.14928E-05 25917   0.137E-02    0.516E-03
RMM:  15    -0.240087776569E+03   -0.10331E-05   -0.24451E-06 18191   0.565E-03    0.373E-03
RMM:  16    -0.240087777440E+03   -0.87046E-06   -0.19780E-06 17660   0.478E-03
  10 F= -.24787778E+03 E0= -.24787778E+03  d E =-.115197E-01  mag=     6.0000
 trial-energy change:   -0.011520  1 .order   -0.011510   -0.014316   -0.008704
 step:   1.5609(harm=  1.5609)  dis= 0.02063  next Energy=  -247.884520 (dE=-0.183E-01)
 bond charge predicted
       N       E                     dE             d eps       ncg     rms          rms(c)
RMM:   1    -0.240103299211E+03   -0.15523E-01   -0.53136E+00 28802   0.567E+00    0.588E-01
RMM:   2    -0.240094194255E+03    0.91050E-02   -0.80546E-02 28900   0.131E+00    0.436E-01
RMM:   3    -0.240094025253E+03    0.16900E-03   -0.55236E-03 30065   0.276E-01    0.321E-01
RMM:   4    -0.240093695083E+03    0.33017E-03   -0.27876E-03 28886   0.173E-01    0.280E-01
RMM:   5    -0.240093156666E+03    0.53842E-03   -0.16462E-03 28943   0.133E-01    0.132E-01
RMM:   6    -0.240093115524E+03    0.41143E-04   -0.41207E-04 29287   0.693E-02    0.750E-02
RMM:   7    -0.240093099590E+03    0.15934E-04   -0.74348E-05 29010   0.311E-02    0.411E-02
RMM:   8    -0.240093136986E+03   -0.37396E-04   -0.21186E-05 28596   0.158E-02    0.356E-02
RMM:   9    -0.240093201881E+03   -0.64894E-04   -0.35888E-05 28655   0.220E-02    0.307E-02
RMM:  10    -0.240093235580E+03   -0.33700E-04   -0.20004E-05 27778   0.165E-02    0.254E-02
RMM:  11    -0.240093286118E+03   -0.50538E-04   -0.33301E-05 28429   0.203E-02    0.214E-02
RMM:  12    -0.240093318634E+03   -0.32516E-04   -0.24495E-05 27908   0.183E-02    0.179E-02
RMM:  13    -0.240093357380E+03   -0.38746E-04   -0.52231E-05 28549   0.262E-02    0.124E-02
RMM:  14    -0.240093373032E+03   -0.15653E-04   -0.35519E-05 28164   0.213E-02    0.760E-03
RMM:  15    -0.240093375541E+03   -0.25085E-05   -0.61283E-06 22688   0.879E-03    0.567E-03
RMM:  16    -0.240093377540E+03   -0.19991E-05   -0.48155E-06 21405   0.770E-03    0.406E-03
RMM:  17    -0.240093378182E+03   -0.64201E-06   -0.21742E-06 17847   0.533E-03
  11 F= -.24788457E+03 E0= -.24788457E+03  d E =-.183107E-01  mag=     6.0000
 curvature:  -2.27 expect dE=-0.398E-01 dE for cont linesearch -0.200E-06
 trial: gam= 0.78959 g(F)=  0.160E-01 g(S)=  0.152E-02 ort =-0.774E-04 (trialstep = 0.802E+00)
 search vector abs. value=  0.599E-01
 bond charge predicted
       N       E                     dE             d eps       ncg     rms          rms(c)
RMM:   1    -0.240106402453E+03   -0.13025E-01   -0.46594E+00 28800   0.526E+00    0.395E-01
RMM:   2    -0.240101356811E+03    0.50456E-02   -0.83758E-02 28800   0.136E+00    0.378E-01
RMM:   3    -0.240101799811E+03   -0.44300E-03   -0.40002E-03 30390   0.238E-01    0.257E-01
RMM:   4    -0.240101673717E+03    0.12609E-03   -0.76089E-04 29522   0.881E-02    0.218E-01
RMM:   5    -0.240101589685E+03    0.84032E-04   -0.10264E-03 28800   0.989E-02    0.143E-01
RMM:   6    -0.240101543700E+03    0.45985E-04   -0.55979E-04 28845   0.775E-02    0.837E-02
RMM:   7    -0.240101490006E+03    0.53694E-04   -0.11906E-04 29191   0.359E-02    0.373E-02
RMM:   8    -0.240101490536E+03   -0.52961E-06   -0.23112E-05 28741   0.148E-02    0.282E-02
RMM:   9    -0.240101498865E+03   -0.83297E-05   -0.15287E-05 28121   0.127E-02    0.232E-02
RMM:  10    -0.240101511811E+03   -0.12946E-04   -0.10808E-05 26947   0.119E-02    0.185E-02
RMM:  11    -0.240101523164E+03   -0.11353E-04   -0.57461E-06 23716   0.868E-03    0.141E-02
RMM:  12    -0.240101534637E+03   -0.11473E-04   -0.55803E-06 23137   0.879E-03    0.131E-02
RMM:  13    -0.240101548614E+03   -0.13978E-04   -0.12293E-05 26866   0.129E-02    0.105E-02
RMM:  14    -0.240101557070E+03   -0.84551E-05   -0.10422E-05 25525   0.115E-02    0.686E-03
RMM:  15    -0.240101561295E+03   -0.42258E-05   -0.61402E-06 22858   0.854E-03    0.582E-03
RMM:  16    -0.240101563505E+03   -0.22092E-05   -0.39081E-06 20083   0.707E-03    0.413E-03
RMM:  17    -0.240101564570E+03   -0.10658E-05   -0.22343E-06 17862   0.531E-03    0.268E-03
RMM:  18    -0.240101564944E+03   -0.37359E-06   -0.85510E-07 16325   0.333E-03
  12 F= -.24789106E+03 E0= -.24789106E+03  d E =-.648945E-02  mag=     6.0000
 trial-energy change:   -0.006489  1 .order   -0.006535   -0.013997    0.000926
 step:   0.7511(harm=  0.7519)  dis= 0.00860  next Energy=  -247.891089 (dE=-0.652E-02)
 bond charge predicted
       N       E                     dE             d eps       ncg     rms          rms(c)
RMM:   1    -0.240101506752E+03    0.57818E-04   -0.18588E-02 28800   0.332E-01    0.253E-02
RMM:   2    -0.240101488401E+03    0.18351E-04   -0.33720E-04 28800   0.861E-02    0.263E-02
RMM:   3    -0.240101488950E+03   -0.54896E-06   -0.17465E-05 29268   0.162E-02    0.168E-02
RMM:   4    -0.240101488501E+03    0.44882E-06   -0.26788E-06 19459   0.599E-03
  13 F= -.24789109E+03 E0= -.24789109E+03  d E =-.651994E-02  mag=     6.0000
 curvature:  -1.29 expect dE=-0.275E-02 dE for cont linesearch -0.416E-09
 trial: gam= 0.11638 g(F)=  0.176E-02 g(S)=  0.372E-03 ort = 0.440E-05 (trialstep = 0.792E+00)
 search vector abs. value=  0.295E-02
 bond charge predicted
       N       E                     dE             d eps       ncg     rms          rms(c)
RMM:   1    -0.240098199943E+03    0.32890E-02   -0.23451E-01 28800   0.124E+00    0.192E-01
RMM:   2    -0.240097902330E+03    0.29761E-03   -0.59024E-03 28800   0.361E-01    0.188E-01
RMM:   3    -0.240097800975E+03    0.10135E-03   -0.79089E-04 29518   0.920E-02    0.136E-01
RMM:   4    -0.240097712798E+03    0.88178E-04   -0.33259E-04 28817   0.533E-02    0.881E-02
RMM:   5    -0.240097702349E+03    0.10449E-04   -0.17548E-04 29579   0.395E-02    0.556E-02
RMM:   6    -0.240097683657E+03    0.18691E-04   -0.64582E-05 28697   0.257E-02    0.256E-02
RMM:   7    -0.240097680766E+03    0.28917E-05   -0.14981E-05 26882   0.141E-02    0.134E-02
RMM:   8    -0.240097681644E+03   -0.87855E-06   -0.16916E-06 18109   0.476E-03
  14 F= -.24789217E+03 E0= -.24789217E+03  d E =-.107679E-02  mag=     6.0000
 trial-energy change:   -0.001077  1 .order   -0.001093   -0.001691   -0.000495
 step:   1.1627(harm=  1.1192)  dis= 0.00264  next Energy=  -247.892282 (dE=-0.119E-02)
 bond charge predicted
       N       E                     dE             d eps       ncg     rms          rms(c)
RMM:   1    -0.240095628638E+03    0.20521E-02   -0.51564E-02 28800   0.583E-01    0.905E-02
RMM:   2    -0.240095569675E+03    0.58964E-04   -0.12954E-03 28800   0.168E-01    0.909E-02
RMM:   3    -0.240095544305E+03    0.25370E-04   -0.18139E-04 29496   0.449E-02    0.652E-02
RMM:   4    -0.240095526733E+03    0.17572E-04   -0.72491E-05 28808   0.253E-02    0.418E-02
RMM:   5    -0.240095528913E+03   -0.21806E-05   -0.38268E-05 29060   0.185E-02    0.262E-02
RMM:   6    -0.240095526743E+03    0.21707E-05   -0.14884E-05 27090   0.128E-02    0.142E-02
RMM:   7    -0.240095527589E+03   -0.84579E-06   -0.38740E-06 21504   0.756E-03
  15 F= -.24789230E+03 E0= -.24789230E+03  d E =-.121409E-02  mag=     6.0000
 curvature:  -0.76 expect dE=-0.106E-02 dE for cont linesearch -0.160E-05
 trial: gam= 0.60028 g(F)=  0.110E-02 g(S)=  0.299E-03 ort = 0.789E-04 (trialstep = 0.866E+00)
 search vector abs. value=  0.256E-02
 bond charge predicted
       N       E                     dE             d eps       ncg     rms          rms(c)
RMM:   1    -0.240100198978E+03   -0.46722E-02   -0.24013E-01 28800   0.125E+00    0.162E-01
RMM:   2    -0.240100036056E+03    0.16292E-03   -0.61690E-03 28800   0.384E-01    0.183E-01
RMM:   3    -0.240099934860E+03    0.10120E-03   -0.46388E-04 29869   0.781E-02    0.116E-01
RMM:   4    -0.240099882575E+03    0.52285E-04   -0.19917E-04 28802   0.399E-02    0.859E-02
RMM:   5    -0.240099869998E+03    0.12577E-04   -0.19363E-04 29259   0.447E-02    0.613E-02
RMM:   6    -0.240099843985E+03    0.26014E-04   -0.76315E-05 28800   0.305E-02    0.275E-02
RMM:   7    -0.240099841673E+03    0.23115E-05   -0.16166E-05 26909   0.146E-02    0.154E-02
RMM:   8    -0.240099843245E+03   -0.15720E-05   -0.26680E-06 19567   0.559E-03    0.116E-02
RMM:   9    -0.240099845403E+03   -0.21583E-05   -0.19879E-06 18318   0.535E-03    0.102E-02
RMM:  10    -0.240099847699E+03   -0.22957E-05   -0.11644E-06 16698   0.431E-03    0.821E-03
RMM:  11    -0.240099852725E+03   -0.50259E-05   -0.29017E-06 19055   0.610E-03    0.678E-03
RMM:  12    -0.240099856495E+03   -0.37701E-05   -0.30367E-06 19073   0.623E-03    0.587E-03
RMM:  13    -0.240099859087E+03   -0.25920E-05   -0.27344E-06 18824   0.601E-03    0.454E-03
RMM:  14    -0.240099861054E+03   -0.19669E-05   -0.31139E-06 19198   0.612E-03    0.350E-03
RMM:  15    -0.240099861796E+03   -0.74210E-06   -0.18125E-06 17159   0.478E-03
  16 F= -.24789309E+03 E0= -.24789309E+03  d E =-.785732E-03  mag=     6.0000
 trial-energy change:   -0.000786  1 .order   -0.000756   -0.001256   -0.000256
 step:   1.0475(harm=  1.0871)  dis= 0.00199  next Energy=  -247.893117 (dE=-0.813E-03)
 bond charge predicted
       N       E                     dE             d eps       ncg     rms          rms(c)
RMM:   1    -0.240100657219E+03   -0.79617E-03   -0.10558E-02 28800   0.263E-01    0.345E-02
RMM:   2    -0.240100648678E+03    0.85414E-05   -0.27442E-04 28800   0.808E-02    0.391E-02
RMM:   3    -0.240100643596E+03    0.50814E-05   -0.20775E-05 28810   0.166E-02    0.242E-02
RMM:   4    -0.240100640789E+03    0.28074E-05   -0.91737E-06 28529   0.860E-03    0.177E-02
RMM:   5    -0.240100639874E+03    0.91550E-06   -0.81975E-06 26671   0.934E-03
  17 F= -.24789312E+03 E0= -.24789312E+03  d E =-.819730E-03  mag=     6.0000
 curvature:  -0.93 expect dE=-0.468E-03 dE for cont linesearch -0.109E-05
 trial: gam= 0.34273 g(F)=  0.486E-03 g(S)=  0.179E-04 ort = 0.547E-04 (trialstep = 0.902E+00)
 search vector abs. value=  0.842E-03
 bond charge predicted
       N       E                     dE             d eps       ncg     rms          rms(c)
RMM:   1    -0.240101905050E+03   -0.12643E-02   -0.69648E-02 28800   0.647E-01    0.690E-02
RMM:   2    -0.240101887550E+03    0.17501E-04   -0.14262E-03 28800   0.175E-01    0.840E-02
RMM:   3    -0.240101857765E+03    0.29784E-04   -0.13825E-04 30180   0.411E-02    0.483E-02
RMM:   4    -0.240101851855E+03    0.59106E-05   -0.18997E-05 28059   0.141E-02    0.354E-02
RMM:   5    -0.240101852988E+03   -0.11335E-05   -0.28451E-05 28800   0.159E-02    0.310E-02
RMM:   6    -0.240101846699E+03    0.62891E-05   -0.17736E-05 26959   0.139E-02    0.102E-02
RMM:   7    -0.240101846078E+03    0.62117E-06   -0.28579E-06 19895   0.552E-03
  18 F= -.24789346E+03 E0= -.24789346E+03  d E =-.336797E-03  mag=     6.0000
 trial-energy change:   -0.000337  1 .order   -0.000337   -0.000471   -0.000204
 step:   1.5882(harm=  1.5882)  dis= 0.00167  next Energy=  -247.893539 (dE=-0.415E-03)
 bond charge predicted
       N       E                     dE             d eps       ncg     rms          rms(c)
RMM:   1    -0.240102617811E+03   -0.77111E-03   -0.40298E-02 28800   0.493E-01    0.530E-02
RMM:   2    -0.240102607547E+03    0.10264E-04   -0.82526E-04 28800   0.133E-01    0.631E-02
RMM:   3    -0.240102591940E+03    0.15607E-04   -0.79549E-05 30250   0.310E-02    0.372E-02
RMM:   4    -0.240102588437E+03    0.35030E-05   -0.11613E-05 27508   0.110E-02    0.270E-02
RMM:   5    -0.240102589150E+03   -0.71256E-06   -0.16691E-05 28668   0.121E-02    0.228E-02
RMM:   6    -0.240102586108E+03    0.30418E-05   -0.98817E-06 26464   0.104E-02    0.816E-03
RMM:   7    -0.240102585760E+03    0.34842E-06   -0.17359E-06 18163   0.445E-03
  19 F= -.24789354E+03 E0= -.24789354E+03  d E =-.415429E-03  mag=     6.0000
 curvature:  -1.28 expect dE=-0.733E-03 dE for cont linesearch -0.604E-07
 trial: gam= 1.16197 g(F)=  0.494E-03 g(S)=  0.781E-04 ort = 0.630E-05 (trialstep = 0.508E+00)
 search vector abs. value=  0.172E-02
 bond charge predicted
       N       E                     dE             d eps       ncg     rms          rms(c)
RMM:   1    -0.240101515349E+03    0.10708E-02   -0.43145E-02 28800   0.513E-01    0.639E-02
RMM:   2    -0.240101505610E+03    0.97393E-05   -0.96254E-04 28800   0.145E-01    0.697E-02
RMM:   3    -0.240101493713E+03    0.11897E-04   -0.84067E-05 30581   0.313E-02    0.447E-02
RMM:   4    -0.240101489881E+03    0.38321E-05   -0.30248E-05 28800   0.160E-02    0.343E-02
RMM:   5    -0.240101488911E+03    0.96914E-06   -0.29878E-05 28800   0.172E-02    0.220E-02
RMM:   6    -0.240101486186E+03    0.27257E-05   -0.10990E-05 26855   0.117E-02    0.113E-02
RMM:   7    -0.240101485197E+03    0.98889E-06   -0.30510E-06 21108   0.652E-03
  20 F= -.24789376E+03 E0= -.24789376E+03  d E =-.219320E-03  mag=     6.0000
 trial-energy change:   -0.000219  1 .order   -0.000221   -0.000294   -0.000148
 step:   1.0243(harm=  1.0243)  dis= 0.00143  next Energy=  -247.893837 (dE=-0.297E-03)
 bond charge predicted
       N       E                     dE             d eps       ncg     rms          rms(c)
RMM:   1    -0.240100239240E+03    0.12469E-02   -0.44731E-02 28800   0.522E-01    0.651E-02
RMM:   2    -0.240100227974E+03    0.11266E-04   -0.98784E-04 28800   0.147E-01    0.704E-02
RMM:   3    -0.240100216967E+03    0.11007E-04   -0.85319E-05 30558   0.315E-02    0.456E-02
RMM:   4    -0.240100213066E+03    0.39011E-05   -0.31764E-05 28800   0.164E-02    0.352E-02
RMM:   5    -0.240100211986E+03    0.10796E-05   -0.31097E-05 28800   0.175E-02    0.220E-02
RMM:   6    -0.240100209239E+03    0.27470E-05   -0.11213E-05 26862   0.118E-02    0.114E-02
RMM:   7    -0.240100208228E+03    0.10116E-05   -0.31702E-06 21308   0.664E-03    0.583E-03
RMM:   8    -0.240100208230E+03   -0.27467E-08   -0.49148E-07 16281   0.253E-03
  21 F= -.24789383E+03 E0= -.24789383E+03  d E =-.286456E-03  mag=     6.0000
 curvature:  -1.52 expect dE=-0.471E-03 dE for cont linesearch -0.911E-06
 trial: gam= 0.56131 g(F)=  0.260E-03 g(S)=  0.490E-04 ort =-0.321E-04 (trialstep = 0.611E+00)
 search vector abs. value=  0.816E-03
 bond charge predicted
       N       E                     dE             d eps       ncg     rms          rms(c)
RMM:   1    -0.240101445198E+03   -0.12370E-02   -0.32943E-02 28801   0.449E-01    0.521E-02
RMM:   2    -0.240101426741E+03    0.18457E-04   -0.69425E-04 28800   0.123E-01    0.524E-02
RMM:   3    -0.240101421623E+03    0.51188E-05   -0.63569E-05 30670   0.279E-02    0.348E-02
[...]
RMM:   6    -0.240103630432E+03    0.17428E-05   -0.73619E-06 25745   0.910E-03    0.782E-03
RMM:   7    -0.240103630066E+03    0.36644E-06   -0.98926E-07 16699   0.375E-03
  26 F= -.24789443E+03 E0= -.24789443E+03  d E =-.140617E-03  mag=     6.0000
 trial-energy change:   -0.000141  1 .order   -0.000139   -0.000169   -0.000109
 step:   1.6151(harm=  1.6151)  dis= 0.00328  next Energy=  -247.894526 (dE=-0.240E-03)
 bond charge predicted
       N       E                     dE             d eps       ncg     rms          rms(c)
RMM:   1    -0.240103777982E+03   -0.14755E-03   -0.20808E-01 28802   0.111E+00    0.104E-01
RMM:   2    -0.240103676349E+03    0.10163E-03   -0.34947E-03 28802   0.269E-01    0.839E-02
RMM:   3    -0.240103688499E+03   -0.12150E-04   -0.28028E-04 30859   0.593E-02    0.566E-02
RMM:   4    -0.240103673648E+03    0.14851E-04   -0.55960E-05 29032   0.240E-02    0.398E-02
RMM:   5    -0.240103674340E+03   -0.69279E-06   -0.47071E-05 28800   0.216E-02    0.320E-02
RMM:   6    -0.240103667924E+03    0.64161E-05   -0.25809E-05 28589   0.169E-02    0.141E-02
RMM:   7    -0.240103666502E+03    0.14220E-05   -0.31765E-06 21091   0.633E-03    0.589E-03
RMM:   8    -0.240103666355E+03    0.14784E-06   -0.54528E-07 16316   0.294E-03
  27 F= -.24789452E+03 E0= -.24789452E+03  d E =-.230709E-03  mag=     6.0000
 curvature:  -3.84 expect dE=-0.149E-02 dE for cont linesearch -0.245E-05
 trial: gam= 1.15465 g(F)=  0.339E-03 g(S)=  0.499E-04 ort =-0.300E-04 (trialstep = 0.498E+00)
 search vector abs. value=  0.220E-02
 bond charge predicted
       N       E                     dE             d eps       ncg     rms          rms(c)
RMM:   1    -0.240105161802E+03   -0.14953E-02   -0.73789E-02 28803   0.664E-01    0.728E-02
RMM:   2    -0.240105135659E+03    0.26142E-04   -0.13745E-03 28801   0.171E-01    0.613E-02
RMM:   3    -0.240105137210E+03   -0.15506E-05   -0.13403E-04 31140   0.394E-02    0.424E-02
RMM:   4    -0.240105128229E+03    0.89809E-05   -0.45018E-05 28800   0.198E-02    0.289E-02
RMM:   5    -0.240105126806E+03    0.14233E-05   -0.22642E-05 28798   0.146E-02    0.190E-02
RMM:   6    -0.240105125117E+03    0.16884E-05   -0.79068E-06 25671   0.959E-03    0.100E-02
RMM:   7    -0.240105124482E+03    0.63573E-06   -0.26050E-06 19964   0.626E-03
  28 F= -.24789465E+03 E0= -.24789465E+03  d E =-.135366E-03  mag=     6.0000
 trial-energy change:   -0.000135  1 .order   -0.000136   -0.000177   -0.000095
 step:   1.0836(harm=  1.0836)  dis= 0.00278  next Energy=  -247.894708 (dE=-0.192E-03)
 bond charge predicted
       N       E                     dE             d eps       ncg     rms          rms(c)
RMM:   1    -0.240106791876E+03   -0.16668E-02   -0.10194E-01 28803   0.781E-01    0.860E-02
RMM:   2    -0.240106755716E+03    0.36160E-04   -0.19013E-03 28801   0.201E-01    0.729E-02
RMM:   3    -0.240106756765E+03   -0.10490E-05   -0.18596E-04 31057   0.464E-02    0.501E-02
RMM:   4    -0.240106744246E+03    0.12519E-04   -0.62652E-05 28801   0.232E-02    0.339E-02
RMM:   5    -0.240106742054E+03    0.21919E-05   -0.31039E-05 28801   0.168E-02    0.217E-02
RMM:   6    -0.240106739877E+03    0.21773E-05   -0.10518E-05 26307   0.108E-02    0.114E-02
RMM:   7    -0.240106738902E+03    0.97440E-06   -0.34893E-06 21093   0.714E-03
  29 F= -.24789471E+03 E0= -.24789471E+03  d E =-.195066E-03  mag=     6.0000
 curvature:  -3.37 expect dE=-0.789E-03 dE for cont linesearch -0.119E-05
 trial: gam= 0.46572 g(F)=  0.234E-03 g(S)=  0.791E-06 ort = 0.279E-04 (trialstep = 0.615E+00)
 search vector abs. value=  0.738E-03
 bond charge predicted
       N       E                     dE             d eps       ncg     rms          rms(c)
RMM:   1    -0.240107588313E+03   -0.84844E-03   -0.46021E-02 28813   0.522E-01    0.542E-02
RMM:   2    -0.240107571074E+03    0.17239E-04   -0.78226E-04 28816   0.129E-01    0.429E-02
RMM:   3    -0.240107575111E+03   -0.40370E-05   -0.77140E-05 30943   0.302E-02    0.310E-02
RMM:   4    -0.240107570080E+03    0.50308E-05   -0.21603E-05 28169   0.144E-02    0.207E-02
RMM:   5    -0.240107569740E+03    0.33977E-06   -0.11970E-05 27680   0.106E-02    0.147E-02
RMM:   6    -0.240107568447E+03    0.12936E-05   -0.42171E-06 22131   0.699E-03    0.654E-03
RMM:   7    -0.240107568226E+03    0.22070E-06   -0.13565E-06 16960   0.471E-03
  30 F= -.24789482E+03 E0= -.24789482E+03  d E =-.109113E-03  mag=     6.0000
 trial-energy change:   -0.000109  1 .order   -0.000111   -0.000152   -0.000070
 step:   1.1460(harm=  1.1460)  dis= 0.00152  next Energy=  -247.894853 (dE=-0.142E-03)
 bond charge predicted
       N       E                     dE             d eps       ncg     rms          rms(c)
RMM:   1    -0.240108235173E+03   -0.66673E-03   -0.34281E-02 28813   0.450E-01    0.468E-02
RMM:   2    -0.240108222353E+03    0.12820E-04   -0.58210E-04 28815   0.111E-01    0.367E-02
RMM:   3    -0.240108225414E+03   -0.30615E-05   -0.56119E-05 30993   0.255E-02    0.261E-02
RMM:   4    -0.240108221870E+03    0.35443E-05   -0.15593E-05 27553   0.120E-02    0.175E-02
RMM:   5    -0.240108221548E+03    0.32216E-06   -0.87186E-06 26776   0.896E-03
  31 F= -.24789485E+03 E0= -.24789485E+03  d E =-.140967E-03  mag=     6.0000
 curvature:  -1.71 expect dE=-0.369E-03 dE for cont linesearch -0.458E-06
 trial: gam= 0.99352 g(F)=  0.207E-03 g(S)=  0.915E-05 ort = 0.141E-04 (trialstep = 0.548E+00)
 search vector abs. value=  0.972E-03
 bond charge predicted
       N       E                     dE             d eps       ncg     rms          rms(c)
RMM:   1    -0.240108422963E+03   -0.20109E-03   -0.55270E-02 28814   0.573E-01    0.493E-02
RMM:   2    -0.240108392743E+03    0.30220E-04   -0.90518E-04 28819   0.138E-01    0.372E-02
RMM:   3    -0.240108399212E+03   -0.64687E-05   -0.62985E-05 31143   0.280E-02    0.254E-02
RMM:   4    -0.240108396660E+03    0.25519E-05   -0.12035E-05 26980   0.110E-02    0.180E-02
RMM:   5    -0.240108397092E+03   -0.43255E-06   -0.10700E-05 26877   0.104E-02    0.147E-02
RMM:   6    -0.240108395669E+03    0.14239E-05   -0.45275E-06 21967   0.699E-03    0.625E-03
RMM:   7    -0.240108395407E+03    0.26185E-06   -0.87519E-07 16322   0.373E-03
  32 F= -.24789496E+03 E0= -.24789496E+03  d E =-.104329E-03  mag=     6.0000
 trial-energy change:   -0.000104  1 .order   -0.000103   -0.000126   -0.000081
 step:   1.5323(harm=  1.5323)  dis= 0.00219  next Energy=  -247.895028 (dE=-0.176E-03)
 bond charge predicted
       N       E                     dE             d eps       ncg     rms          rms(c)
RMM:   1    -0.240108692664E+03   -0.29700E-03   -0.17913E-01 28813   0.103E+00    0.884E-02
RMM:   2    -0.240108596035E+03    0.96630E-04   -0.29437E-03 28819   0.249E-01    0.683E-02
RMM:   3    -0.240108615623E+03   -0.19588E-04   -0.21190E-04 30997   0.518E-02    0.473E-02
RMM:   4    -0.240108606194E+03    0.94289E-05   -0.41671E-05 28936   0.209E-02    0.341E-02
RMM:   5    -0.240108606085E+03    0.10942E-06   -0.33477E-05 28800   0.181E-02    0.265E-02
RMM:   6    -0.240108601493E+03    0.45912E-05   -0.16761E-05 27734   0.132E-02    0.104E-02
RMM:   7    -0.240108600617E+03    0.87625E-06   -0.20920E-06 19479   0.499E-03
  33 F= -.24789504E+03 E0= -.24789504E+03  d E =-.184589E-03  mag=     6.0000
 curvature:  -3.24 expect dE=-0.870E-03 dE for cont linesearch -0.568E-06
 trial: gam= 1.03710 g(F)=  0.255E-03 g(S)=  0.133E-04 ort = 0.131E-04 (trialstep = 0.540E+00)
 search vector abs. value=  0.134E-02
 bond charge predicted
       N       E                     dE             d eps       ncg     rms          rms(c)
RMM:   1    -0.240108054006E+03    0.54749E-03   -0.79758E-02 28814   0.688E-01    0.641E-02
RMM:   2    -0.240108037101E+03    0.16905E-04   -0.14329E-03 28820   0.175E-01    0.548E-02
RMM:   3    -0.240108041325E+03   -0.42233E-05   -0.11430E-04 30912   0.382E-02    0.351E-02
RMM:   4    -0.240108035780E+03    0.55444E-05   -0.24475E-05 28803   0.150E-02    0.237E-02
RMM:   5    -0.240108036463E+03   -0.68325E-06   -0.17904E-05 28646   0.133E-02    0.184E-02
RMM:   6    -0.240108034173E+03    0.22907E-05   -0.79209E-06 25884   0.957E-03    0.847E-03
RMM:   7    -0.240108033601E+03    0.57223E-06   -0.14071E-06 17498   0.445E-03
  34 F= -.24789514E+03 E0= -.24789514E+03  d E =-.108014E-03  mag=     6.0000
 trial-energy change:   -0.000108  1 .order   -0.000110   -0.000152   -0.000068
 step:   0.9718(harm=  0.9718)  dis= 0.00164  next Energy=  -247.895174 (dE=-0.137E-03)
 bond charge predicted
       N       E                     dE             d eps       ncg     rms          rms(c)
RMM:   1    -0.240107536149E+03    0.49802E-03   -0.51098E-02 28815   0.551E-01    0.516E-02
RMM:   2    -0.240107525762E+03    0.10387E-04   -0.91725E-04 28821   0.140E-01    0.442E-02
RMM:   3    -0.240107528314E+03   -0.25515E-05   -0.73757E-05 30903   0.307E-02    0.283E-02
RMM:   4    -0.240107524704E+03    0.36101E-05   -0.15862E-05 28179   0.121E-02    0.191E-02
RMM:   5    -0.240107525067E+03   -0.36355E-06   -0.11813E-05 27676   0.106E-02    0.142E-02
RMM:   6    -0.240107523679E+03    0.13878E-05   -0.46775E-06 22815   0.736E-03    0.671E-03
RMM:   7    -0.240107523341E+03    0.33799E-06   -0.10053E-06 16514   0.408E-03
  35 F= -.24789518E+03 E0= -.24789518E+03  d E =-.138209E-03  mag=     6.0000
 curvature:  -2.31 expect dE=-0.493E-03 dE for cont linesearch -0.978E-06
 trial: gam= 0.62132 g(F)=  0.194E-03 g(S)=  0.189E-04 ort = 0.238E-04 (trialstep = 0.626E+00)
 search vector abs. value=  0.761E-03
 bond charge predicted
       N       E                     dE             d eps       ncg     rms          rms(c)
RMM:   1    -0.240108249745E+03   -0.72607E-03   -0.67100E-02 28809   0.634E-01    0.560E-02
RMM:   2    -0.240108226736E+03    0.23010E-04   -0.12593E-03 28811   0.166E-01    0.557E-02
RMM:   3    -0.240108227557E+03   -0.82074E-06   -0.90268E-05 30737   0.339E-02    0.351E-02
RMM:   4    -0.240108222725E+03    0.48312E-05   -0.17371E-05 28516   0.126E-02    0.254E-02
RMM:   5    -0.240108222765E+03   -0.39574E-07   -0.18961E-05 28758   0.135E-02    0.201E-02
RMM:   6    -0.240108219866E+03    0.28988E-05   -0.94736E-06 26600   0.106E-02    0.838E-03
RMM:   7    -0.240108219305E+03    0.56109E-06   -0.11714E-06 17066   0.410E-03
  36 F= -.24789528E+03 E0= -.24789528E+03  d E =-.103404E-03  mag=     6.0000
 trial-energy change:   -0.000103  1 .order   -0.000104   -0.000143   -0.000065
 step:   1.1476(harm=  1.1476)  dis= 0.00151  next Energy=  -247.895306 (dE=-0.131E-03)
 bond charge predicted
       N       E                     dE             d eps       ncg     rms          rms(c)
RMM:   1    -0.240108766513E+03   -0.54665E-03   -0.46556E-02 28809   0.528E-01    0.466E-02
RMM:   2    -0.240108750758E+03    0.15756E-04   -0.87360E-04 28811   0.139E-01    0.462E-02
RMM:   3    -0.240108751669E+03   -0.91153E-06   -0.62484E-05 30714   0.282E-02    0.292E-02
RMM:   4    -0.240108748341E+03    0.33282E-05   -0.11926E-05 27509   0.105E-02    0.211E-02
RMM:   5    -0.240108748279E+03    0.61762E-07   -0.13042E-05 28016   0.110E-02    0.162E-02
RMM:   6    -0.240108746386E+03    0.18929E-05   -0.62067E-06 24368   0.859E-03    0.683E-03
RMM:   7    -0.240108746012E+03    0.37373E-06   -0.87866E-07 16401   0.375E-03
  37 F= -.24789531E+03 E0= -.24789531E+03  d E =-.136718E-03  mag=     6.0000
 curvature:  -1.91 expect dE=-0.401E-03 dE for cont linesearch -0.265E-05
 trial: gam= 0.89816 g(F)=  0.199E-03 g(S)=  0.997E-05 ort = 0.325E-04 (trialstep = 0.630E+00)
 search vector abs. value=  0.881E-03
 bond charge predicted
       N       E                     dE             d eps       ncg     rms          rms(c)
RMM:   1    -0.240108595878E+03    0.15051E-03   -0.78762E-02 28817   0.681E-01    0.644E-02
RMM:   2    -0.240108554031E+03    0.41847E-04   -0.12020E-03 28826   0.157E-01    0.415E-02
RMM:   3    -0.240108564603E+03   -0.10571E-04   -0.87696E-05 31381   0.324E-02    0.305E-02
RMM:   4    -0.240108562643E+03    0.19596E-05   -0.22722E-05 27596   0.157E-02    0.254E-02
RMM:   5    -0.240108559487E+03    0.31564E-05   -0.15137E-05 27450   0.126E-02    0.123E-02
RMM:   6    -0.240108558900E+03    0.58665E-06   -0.43675E-06 21721   0.701E-03
  38 F= -.24789543E+03 E0= -.24789543E+03  d E =-.119635E-03  mag=     6.0000
 trial-energy change:   -0.000120  1 .order   -0.000121   -0.000150   -0.000091
 step:   1.6024(harm=  1.6024)  dis= 0.00212  next Energy=  -247.895503 (dE=-0.191E-03)
 bond charge predicted
       N       E                     dE             d eps       ncg     rms          rms(c)
RMM:   1    -0.240108198467E+03    0.36102E-03   -0.18712E-01 28819   0.105E+00    0.991E-02
RMM:   2    -0.240108100635E+03    0.97832E-04   -0.28642E-03 28827   0.242E-01    0.645E-02
RMM:   3    -0.240108125943E+03   -0.25309E-04   -0.21177E-04 31492   0.505E-02    0.479E-02
RMM:   4    -0.240108120466E+03    0.54775E-05   -0.54865E-05 28919   0.242E-02    0.390E-02
RMM:   5    -0.240108113686E+03    0.67795E-05   -0.36554E-05 28800   0.193E-02    0.202E-02
RMM:   6    -0.240108111980E+03    0.17065E-05   -0.12006E-05 26852   0.115E-02    0.110E-02
RMM:   7    -0.240108110803E+03    0.11768E-05   -0.20658E-06 19528   0.512E-03    0.399E-03
RMM:   8    -0.240108110764E+03    0.39003E-07   -0.43426E-07 16281   0.252E-03
  39 F= -.24789546E+03 E0= -.24789546E+03  d E =-.144731E-03  mag=     6.0000
 curvature:  -2.96 expect dE=-0.116E-02 dE for cont linesearch -0.143E-04
 ZBRENT: interpolating
 opt :   1.3003  next Energy=  -247.895466 (dE=-0.155E-03)
 bond charge predicted
       N       E                     dE             d eps       ncg     rms          rms(c)
RMM:   1    -0.240108278599E+03   -0.16780E-03   -0.18058E-02 28819   0.326E-01    0.305E-02
RMM:   2    -0.240108268412E+03    0.10187E-04   -0.27384E-04 28808   0.747E-02    0.199E-02
RMM:   3    -0.240108270458E+03   -0.20469E-05   -0.19668E-05 29997   0.155E-02    0.146E-02
RMM:   4    -0.240108270057E+03    0.40190E-06   -0.51049E-06 24098   0.789E-03
  40 F= -.24789547E+03 E0= -.24789547E+03  d E =-.156911E-03  mag=     6.0000
 curvature:  -2.04 expect dE=-0.587E-03 dE for cont linesearch -0.471E-07
 trial: gam= 1.36045 g(F)=  0.229E-03 g(S)=  0.588E-04 ort =-0.451E-05 (trialstep = 0.353E+00)
 search vector abs. value=  0.191E-02
 bond charge predicted
       N       E                     dE             d eps       ncg     rms          rms(c)
RMM:   1    -0.240106892420E+03    0.13780E-02   -0.53080E-02 28863   0.572E-01    0.639E-02
RMM:   2    -0.240106860091E+03    0.32328E-04   -0.11166E-03 28839   0.157E-01    0.545E-02
RMM:   3    -0.240106858512E+03    0.15795E-05   -0.97321E-05 30867   0.337E-02    0.350E-02
RMM:   4    -0.240106852521E+03    0.59905E-05   -0.43651E-05 28808   0.179E-02    0.250E-02
RMM:   5    -0.240106849714E+03    0.28073E-05   -0.12435E-05 27764   0.114E-02    0.129E-02
RMM:   6    -0.240106849771E+03   -0.56698E-07   -0.54168E-06 22792   0.800E-03
  41 F= -.24789554E+03 E0= -.24789554E+03  d E =-.677866E-04  mag=     6.0000
 trial-energy change:   -0.000068  1 .order   -0.000068   -0.000099   -0.000037
 step:   0.5626(harm=  0.5626)  dis= 0.00108  next Energy=  -247.895548 (dE=-0.792E-04)
 bond charge predicted
       N       E                     dE             d eps       ncg     rms          rms(c)
RMM:   1    -0.240106002842E+03    0.84687E-03   -0.18521E-02 28871   0.338E-01    0.393E-02
RMM:   2    -0.240105992779E+03    0.10064E-04   -0.39113E-04 28826   0.933E-02    0.335E-02
RMM:   3    -0.240105992233E+03    0.54567E-06   -0.34627E-05 29874   0.201E-02    0.220E-02
RMM:   4    -0.240105990576E+03    0.16565E-05   -0.16889E-05 28797   0.116E-02    0.168E-02
RMM:   5    -0.240105989711E+03    0.86487E-06   -0.60599E-06 24407   0.775E-03
  42 F= -.24789556E+03 E0= -.24789556E+03  d E =-.888573E-04  mag=     6.0000
 curvature:  -1.91 expect dE=-0.326E-03 dE for cont linesearch -0.106E-04
 ZBRENT: increasing intervall
 opt :   0.9809  next Energy=  -247.895600 (dE=-0.131E-03)
 bond charge predicted
       N       E                     dE             d eps       ncg     rms          rms(c)
RMM:   1    -0.240104282710E+03    0.17079E-02   -0.74035E-02 28869   0.675E-01    0.763E-02
RMM:   2    -0.240104244187E+03    0.38523E-04   -0.15848E-03 28846   0.188E-01    0.675E-02
RMM:   3    -0.240104240669E+03    0.35179E-05   -0.13544E-04 30852   0.402E-02    0.426E-02
RMM:   4    -0.240104231631E+03    0.90382E-05   -0.59822E-05 28811   0.206E-02    0.289E-02
RMM:   5    -0.240104227626E+03    0.40045E-05   -0.14502E-05 28641   0.130E-02    0.107E-02
RMM:   6    -0.240104228157E+03   -0.53086E-06   -0.44024E-06 22128   0.738E-03
  43 F= -.24789556E+03 E0= -.24789556E+03  d E =-.901055E-04  mag=     6.0000
 curvature:  -7.62 expect dE=-0.219E-02 dE for cont linesearch -0.375E-05
 trial: gam= 0.92962 g(F)=  0.205E-03 g(S)=  0.817E-04 ort =-0.306E-04 (trialstep = 0.479E+00)
 search vector abs. value=  0.188E-02
 bond charge predicted
       N       E                     dE             d eps       ncg     rms          rms(c)
RMM:   1    -0.240104493580E+03   -0.26595E-03   -0.98256E-02 28825   0.765E-01    0.662E-02
RMM:   2    -0.240104441036E+03    0.52544E-04   -0.16694E-03 28833   0.188E-01    0.554E-02
RMM:   3    -0.240104446247E+03   -0.52118E-05   -0.12299E-04 30680   0.403E-02    0.363E-02
RMM:   4    -0.240104439262E+03    0.69857E-05   -0.21413E-05 28635   0.148E-02    0.242E-02
RMM:   5    -0.240104439443E+03   -0.18167E-06   -0.19379E-05 28355   0.135E-02    0.194E-02
RMM:   6    -0.240104437056E+03    0.23875E-05   -0.10076E-05 26128   0.106E-02    0.974E-03
RMM:   7    -0.240104436250E+03    0.80608E-06   -0.12221E-06 17743   0.411E-03
  44 F= -.24789564E+03 E0= -.24789564E+03  d E =-.806425E-04  mag=     6.0000
 trial-energy change:   -0.000081  1 .order   -0.000088   -0.000124   -0.000053
 step:   0.8369(harm=  0.8369)  dis= 0.00179  next Energy=  -247.895667 (dE=-0.108E-03)
 bond charge predicted
       N       E                     dE             d eps       ncg     rms          rms(c)
RMM:   1    -0.240104577032E+03   -0.13998E-03   -0.54998E-02 28824   0.572E-01    0.485E-02
RMM:   2    -0.240104547843E+03    0.29189E-04   -0.93584E-04 28831   0.141E-01    0.401E-02
RMM:   3    -0.240104552069E+03   -0.42262E-05   -0.67699E-05 30725   0.297E-02    0.264E-02
RMM:   4    -0.240104548285E+03    0.37847E-05   -0.11843E-05 27050   0.110E-02    0.178E-02
RMM:   5    -0.240104548156E+03    0.12830E-06   -0.10363E-05 27187   0.987E-03    0.136E-02
RMM:   6    -0.240104547060E+03    0.10964E-05   -0.50277E-06 22376   0.753E-03    0.732E-03
RMM:   7    -0.240104546637E+03    0.42307E-06   -0.80879E-07 16473   0.367E-03
  45 F= -.24789565E+03 E0= -.24789565E+03  d E =-.958888E-04  mag=     6.0000
 curvature:  -3.04 expect dE=-0.564E-03 dE for cont linesearch -0.113E-06
 trial: gam= 0.36654 g(F)=  0.172E-03 g(S)=  0.132E-04 ort =-0.836E-05 (trialstep = 0.550E+00)
 search vector abs. value=  0.432E-03
 bond charge predicted
       N       E                     dE             d eps       ncg     rms          rms(c)
RMM:   1    -0.240105586933E+03   -0.10399E-02   -0.28262E-02 28812   0.415E-01    0.458E-02
RMM:   2    -0.240105586680E+03    0.25303E-06   -0.63750E-04 28808   0.120E-01    0.503E-02
RMM:   3    -0.240105581256E+03    0.54234E-05   -0.54971E-05 31081   0.256E-02    0.302E-02
RMM:   4    -0.240105578001E+03    0.32555E-05   -0.14312E-05 28775   0.106E-02    0.231E-02
RMM:   5    -0.240105576587E+03    0.14138E-05   -0.12254E-05 28370   0.109E-02    0.145E-02
RMM:   6    -0.240105575788E+03    0.79862E-06   -0.57790E-06 23346   0.839E-03
  46 F= -.24789573E+03 E0= -.24789573E+03  d E =-.709847E-04  mag=     6.0000
 trial-energy change:   -0.000071  1 .order   -0.000066   -0.000100   -0.000033
 step:   0.7237(harm=  0.8143)  dis= 0.00087  next Energy=  -247.895731 (dE=-0.762E-04)
 reached required accuracy - stopping structural energy minimisation
