 vasp.5.4.1 05Feb16 (build Apr 23 2022 14:15:44) complex                        
  
 executed on           IFC91_ompi date 2024.10.28  00:39:38
 running on   48 total cores
 distrk:  each k-point on   48 cores,    1 groups
 distr:  one band on NCORES_PER_BAND=   8 cores,    6 groups


--------------------------------------------------------------------------------------------------------


 INCAR:
 POTCAR:    PAW_PBE Co 02Aug2007                  
 POTCAR:    PAW_PBE O 08Apr2002                   
 POTCAR:    PAW_PBE Li 17Jan2003                  
 POTCAR:    PAW_PBE Co 02Aug2007                  
   VRHFIN =Co: d8 s1                                                            
   LEXCH  = PE                                                                  
   EATOM  =   813.3670 eV,   59.7808 Ry                                         
                                                                                
   TITEL  = PAW_PBE Co 02Aug2007                                                
   LULTRA =        F    use ultrasoft PP ?                                      
   IUNSCR =        1    unscreen: 0-lin 1-nonlin 2-no                           
   RPACOR =    2.000    partial core radius                                     
   POMASS =   58.933; ZVAL   =    9.000    mass and valenz                      
   RCORE  =    2.300    outmost cutoff radius                                   
   RWIGS  =    2.460; RWIGS  =    1.302    wigner-seitz radius (au A)           
   ENMAX  =  267.968; ENMIN  =  200.976 eV                                      
   RCLOC  =    1.203    cutoff for local pot                                    
   LCOR   =        T    correct aug charges                                     
   LPAW   =        T    paw PP                                                  
   EAUG   =  477.818                                                            
   DEXC   =    0.000                                                            
   RMAX   =    2.360    core radius for proj-oper                               
   RAUG   =    1.300    factor for augmentation sphere                          
   RDEP   =    2.393    radius for radial grids                                 
   RDEPT  =    1.864    core radius for aug-charge                              
                                                                                
   Atomic configuration                                                         
    9 entries                                                                   
     n  l   j            E        occ.                                          
     1  0  0.50     -7587.6674   2.0000                                         
     2  0  0.50      -893.6084   2.0000                                         
     2  1  1.50      -764.5805   6.0000                                         
     3  0  0.50       -97.5973   2.0000                                         
     3  1  1.50       -60.9648   6.0000                                         
     3  2  2.50        -4.2382   8.0000                                         
     4  0  0.50        -4.3746   1.0000                                         
     4  1  1.50        -4.0817   0.0000                                         
     4  3  2.50        -1.3606   0.0000                                         
   Description                                                                  
     l       E           TYP  RCUT    TYP  RCUT                                 
     2     -4.2382362     23  2.300                                             
     2     -5.5988188     23  2.300                                             
     0     -4.3745797     23  2.300                                             
     0      5.7660125     23  2.300                                             
     1     -2.7211652     23  2.300                                             
     1     16.9860234     23  2.300                                             
  local pseudopotential read in
  partial core-charges read in
  partial kinetic energy density read in
  atomic valenz-charges read in
  non local Contribution for L=           2  read in
    real space projection operators read in
  non local Contribution for L=           2  read in
    real space projection operators read in
  non local Contribution for L=           0  read in
    real space projection operators read in
  non local Contribution for L=           0  read in
    real space projection operators read in
  non local Contribution for L=           1  read in
    real space projection operators read in
  non local Contribution for L=           1  read in
    real space projection operators read in
    PAW grid and wavefunctions read in
 
   number of l-projection  operators is LMAX  =           6
   number of lm-projection operators is LMMAX =          18
 
 POTCAR:    PAW_PBE O 08Apr2002                   
   VRHFIN =O: s2p4                                                              
   LEXCH  = PE                                                                  
   EATOM  =   432.3788 eV,   31.7789 Ry                                         
                                                                                
   TITEL  = PAW_PBE O 08Apr2002                                                 
   LULTRA =        F    use ultrasoft PP ?                                      
   IUNSCR =        1    unscreen: 0-lin 1-nonlin 2-no                           
   RPACOR =    1.200    partial core radius                                     
   POMASS =   16.000; ZVAL   =    6.000    mass and valenz                      
   RCORE  =    1.520    outmost cutoff radius                                   
   RWIGS  =    1.550; RWIGS  =    0.820    wigner-seitz radius (au A)           
   ENMAX  =  400.000; ENMIN  =  300.000 eV                                      
   ICORE  =        2    local potential                                         
   LCOR   =        T    correct aug charges                                     
   LPAW   =        T    paw PP                                                  
   EAUG   =  605.392                                                            
   DEXC   =    0.000                                                            
   RMAX   =    1.553    core radius for proj-oper                               
   RAUG   =    1.300    factor for augmentation sphere                          
   RDEP   =    1.550    radius for radial grids                                 
   RDEPT  =    1.329    core radius for aug-charge                              
                                                                                
   Atomic configuration                                                         
    4 entries                                                                   
     n  l   j            E        occ.                                          
     1  0  0.50      -514.6923   2.0000                                         
     2  0  0.50       -23.9615   2.0000                                         
     2  1  0.50        -9.0305   4.0000                                         
     3  2  1.50        -9.5241   0.0000                                         
   Description                                                                  
     l       E           TYP  RCUT    TYP  RCUT                                 
     0    -23.9615318     23  1.200                                             
     0     -9.5240782     23  1.200                                             
     1     -9.0304911     23  1.520                                             
     1      8.1634956     23  1.520                                             
     2     -9.5240782      7  1.500                                             
  local pseudopotential read in
  partial core-charges read in
  partial kinetic energy density read in
  kinetic energy density of atom read in
  atomic valenz-charges read in
  non local Contribution for L=           0  read in
    real space projection operators read in
  non local Contribution for L=           0  read in
    real space projection operators read in
  non local Contribution for L=           1  read in
    real space projection operators read in
  non local Contribution for L=           1  read in
    real space projection operators read in
    PAW grid and wavefunctions read in
 
   number of l-projection  operators is LMAX  =           4
   number of lm-projection operators is LMMAX =           8
 
 POTCAR:    PAW_PBE Li 17Jan2003                  
   VRHFIN =Li: s1p0                                                             
   LEXCH  = PE                                                                  
   EATOM  =     5.3001 eV,    0.3895 Ry                                         
                                                                                
   TITEL  = PAW_PBE Li 17Jan2003                                                
   LULTRA =        F    use ultrasoft PP ?                                      
   IUNSCR =        1    unscreen: 0-lin 1-nonlin 2-no                           
   RPACOR =    1.500    partial core radius                                     
   POMASS =    7.010; ZVAL   =    1.000    mass and valenz                      
   RCORE  =    2.050    outmost cutoff radius                                   
   RWIGS  =    2.600; RWIGS  =    1.376    wigner-seitz radius (au A)           
   ENMAX  =  140.000; ENMIN  =  100.000 eV                                      
   ICORE  =        2    local potential                                         
   LCOR   =        T    correct aug charges                                     
   LPAW   =        T    paw PP                                                  
   EAUG   =  331.638                                                            
   DEXC   =    0.000                                                            
   RMAX   =    2.098    core radius for proj-oper                               
   RAUG   =    1.300    factor for augmentation sphere                          
   RDEP   =    2.094    radius for radial grids                                 
   RDEPT  =    1.810    core radius for aug-charge                              
                                                                                
   Atomic configuration                                                         
    4 entries                                                                   
     n  l   j            E        occ.                                          
     1  0  0.50       -51.8549   2.0000                                         
     2  0  0.50        -2.8742   1.0000                                         
     2  1  0.50        -1.3606   0.0000                                         
     3  2  1.50        -1.3606   0.0000                                         
   Description                                                                  
     l       E           TYP  RCUT    TYP  RCUT                                 
     0     -2.8742052     23  2.050                                             
     0     27.2116520     23  2.050                                             
     1     -1.3605826     23  2.050                                             
     2     -1.3605826     23  2.050                                             
  local pseudopotential read in
  partial core-charges read in
  partial kinetic energy density read in
  atomic valenz-charges read in
  non local Contribution for L=           0  read in
    real space projection operators read in
  non local Contribution for L=           0  read in
    real space projection operators read in
  non local Contribution for L=           1  read in
    real space projection operators read in
    PAW grid and wavefunctions read in
 
   number of l-projection  operators is LMAX  =           3
   number of lm-projection operators is LMMAX =           5
 
 Optimization of the real space projectors (new method)

 maximal supplied QI-value         = 16.25
 optimisation between [QCUT,QGAM] = [ 12.51, 25.03] = [ 43.85,175.40] Ry 
 Optimized for a Real-space Cutoff    1.31 Angstroem

   l    n(q)    QCUT    max X(q) W(low)/X(q) W(high)/X(q)  e(spline) 
   2      9    12.514    65.824    0.30E-03    0.46E-03    0.43E-06
   2      9    12.514    61.429    0.31E-03    0.46E-03    0.44E-06
   0     10    12.514    56.174    0.90E-04    0.33E-03    0.30E-06
   0     10    12.514    31.263    0.81E-04    0.30E-03    0.28E-06
   1      9    12.514    19.828    0.38E-03    0.65E-04    0.24E-06
   1      9    12.514    15.139    0.32E-03    0.60E-04    0.20E-06
 Optimization of the real space projectors (new method)

 maximal supplied QI-value         = 24.76
 optimisation between [QCUT,QGAM] = [ 12.38, 25.00] = [ 42.90,175.06] Ry 
 Optimized for a Real-space Cutoff    1.13 Angstroem

   l    n(q)    QCUT    max X(q) W(low)/X(q) W(high)/X(q)  e(spline) 
   0      8    12.378    20.381    0.16E-03    0.54E-05    0.27E-06
   0      8    12.378    15.268    0.17E-03    0.61E-05    0.29E-06
   1      8    12.378     5.964    0.38E-03    0.23E-03    0.28E-06
   1      8    12.378     5.382    0.33E-03    0.20E-03    0.25E-06
 Optimization of the real space projectors (new method)

 maximal supplied QI-value         = 18.33
 optimisation between [QCUT,QGAM] = [ 12.46, 24.93] = [ 43.51,174.03] Ry 
 Optimized for a Real-space Cutoff    1.13 Angstroem

   l    n(q)    QCUT    max X(q) W(low)/X(q) W(high)/X(q)  e(spline) 
   0      8    12.465    33.825    0.12E-03    0.29E-03    0.99E-07
   0      8    12.465     8.944    0.86E-04    0.22E-03    0.72E-07
   1      8    12.465     4.214    0.27E-03    0.11E-03    0.82E-07
  PAW_PBE Co 02Aug2007                  :
 energy of atom  1       EATOM= -813.3670
 kinetic energy error for atom=    0.0018 (will be added to EATOM!!)
  PAW_PBE O 08Apr2002                   :
 energy of atom  2       EATOM= -432.3788
 kinetic energy error for atom=    0.0168 (will be added to EATOM!!)
  PAW_PBE Li 17Jan2003                  :
 energy of atom  3       EATOM=   -5.3001
 kinetic energy error for atom=    0.0000 (will be added to EATOM!!)
 
 
 POSCAR: Co  O Li                                
  positions in cartesian coordinates
  No initial velocities read in
 exchange correlation table for  LEXCH =        8
   RHO(1)=    0.500       N(1)  =     2000
   RHO(2)=  100.500       N(2)  =     4000

 VTST: version 3.1, (03/28/14)

 CHAIN: initializing optimizer
 
 OPT: Using VASP Conjugate-Gradient optimizer
 CHAIN: Read ICHAIN            0
 
 POSCAR: Co  O Li                                
  positions in cartesian coordinates
  No initial velocities read in
 


--------------------------------------------------------------------------------------------------------


 ion  position               nearest neighbor table
   1  0.181  0.346  0.165-  20 1.86  14 1.87  25 1.88  19 1.88  13 1.88  32 1.89   7 2.80   4 2.80
                            10 2.80   7 2.80  10 2.80   4 2.80  39 2.88  37 2.91
   2  0.006  0.004  0.498-  33 1.86  34 1.86  16 1.87  15 1.88  28 1.89  21 1.89   8 2.80  11 2.80
                             5 2.80   8 2.80   5 2.80  11 2.81  37 2.89  38 2.91
   3  0.345  0.171  0.832-  29 1.86  24 1.86  18 1.87  35 1.88  17 1.89  30 1.89   6 2.80   9 2.80
                            12 2.80   9 2.80  12 2.81   6 2.81  39 2.91  38 2.91
   4  0.181  0.846  0.161-  20 1.89  26 1.90  14 1.90  31 1.90  19 1.90  13 1.91  10 2.80   7 2.80
                             1 2.80  10 2.80   1 2.80   7 2.80  37 2.87
   5  0.007  0.505  0.495-  34 1.86  22 1.87  27 1.88  15 1.88  28 1.89  21 1.89  11 2.80  11 2.80
                             2 2.80   8 2.80   2 2.80   8 2.80  38 2.91
   6  0.345  0.672  0.832-  24 1.88  29 1.88  36 1.89  23 1.89  35 1.90  18 1.90   3 2.80  12 2.80
                             9 2.80  12 2.80   9 2.80   3 2.81  38 2.82  39 2.85
   7  0.681  0.346  0.165-  20 1.86  26 1.87  25 1.88  31 1.88  13 1.88  32 1.89   1 2.80   4 2.80
                            10 2.80   1 2.80  10 2.80   4 2.80  39 2.89  37 2.90
   8  0.507  0.005  0.502-  33 1.86  27 1.87  16 1.88  22 1.88  21 1.89  28 1.89   2 2.80  11 2.80
                             5 2.80   2 2.80   5 2.80  11 2.80  37 2.89
   9  0.845  0.171  0.835-  29 1.86  23 1.87  18 1.88  36 1.88  17 1.88  30 1.89   3 2.80   6 2.80
                             3 2.80  12 2.80   6 2.80  12 2.80  38 2.95
  10  0.681  0.846  0.169-  25 1.87  31 1.87  19 1.88  26 1.88  14 1.88  32 1.89   4 2.80   1 2.80
                             4 2.80   7 2.80   7 2.80   1 2.80  39 2.88
  11  0.507  0.505  0.498-  34 1.88  33 1.88  27 1.89  22 1.89  15 1.90  16 1.90   2 2.80   5 2.80
                             5 2.80   8 2.80   8 2.80   2 2.81  38 2.85  37 2.88
  12  0.845  0.672  0.828-  24 1.86  36 1.87  23 1.88  35 1.88  30 1.89  17 1.89   6 2.80   3 2.80
                             6 2.80   9 2.80   9 2.80   3 2.81  39 2.92
  13  0.351  0.187  0.096-   7 1.88   1 1.88   4 1.91  39 2.14
  14  0.021  0.018  0.232-   1 1.87  10 1.88   4 1.90  37 2.10
  15  0.171  0.331  0.429-   2 1.88   5 1.88  11 1.90  37 2.15
  16  0.336  0.172  0.567-   2 1.87   8 1.88  11 1.90  38 2.14
  17  0.011  0.010  0.764-   9 1.88   3 1.89  12 1.89  38 2.20
  18  0.183  0.338  0.901-   3 1.87   9 1.88   6 1.90  39 2.12
  19  0.355  0.676  0.097-  10 1.88   1 1.88   4 1.90  39 2.07
  20  0.016  0.516  0.230-   1 1.86   7 1.86   4 1.89
  21  0.180  0.843  0.430-   8 1.89   2 1.89   5 1.89  37 2.11
  22  0.333  0.667  0.566-   5 1.87   8 1.88  11 1.89  38 2.08
  23  0.008  0.494  0.764-   9 1.87  12 1.88   6 1.89  38 2.09
  24  0.174  0.839  0.897-   3 1.86  12 1.86   6 1.88
  25  0.844  0.173  0.100-  10 1.87   1 1.88   7 1.88
  26  0.513  0.018  0.232-   7 1.87  10 1.88   4 1.90  37 2.09
  27  0.666  0.327  0.431-   8 1.87   5 1.88  11 1.89  37 2.10
  28  0.849  0.180  0.567-   2 1.89   5 1.89   8 1.89  38 2.15
  29  0.516  0.008  0.767-   9 1.86   3 1.86   6 1.88
  30  0.680  0.347  0.900-   3 1.89  12 1.89   9 1.89  39 2.15
  31  0.835  0.676  0.097-  10 1.87   7 1.88   4 1.90  39 2.09
  32  0.513  0.510  0.235-   1 1.89   7 1.89  10 1.89  37 2.18
  33  0.672  0.842  0.434-   8 1.86   2 1.86  11 1.88
  34  0.847  0.673  0.563-   2 1.86   5 1.86  11 1.88
  35  0.506  0.498  0.763-   3 1.88  12 1.88   6 1.90  38 2.09
  36  0.682  0.834  0.899-  12 1.87   9 1.88   6 1.89  39 2.10
  37  0.343  0.165  0.332-  26 2.09  27 2.10  14 2.10  21 2.11  15 2.15  32 2.18   4 2.87  11 2.88
                             2 2.89   8 2.89   7 2.90   1 2.91
  38  0.185  0.355  0.665-  22 2.08  35 2.09  23 2.09  16 2.14  28 2.15  17 2.20   6 2.82  11 2.85
                             5 2.91   2 2.91   3 2.91   9 2.95
  39  0.514  0.520  0.999-  19 2.07  31 2.09  36 2.10  18 2.12  13 2.14  30 2.15   6 2.85  10 2.88
                             1 2.88   7 2.89   3 2.91  12 2.92
 
  LATTYP: Found a triclinic cell.
 ALAT       =     5.6045364076
 B/A-ratio  =     0.9989808333
 C/A-ratio  =     2.5429140212
 COS(alpha) =     0.0014567817
 COS(beta)  =     0.0096184779
 COS(gamma) =     0.4993944129
  
  Lattice vectors:
  
 A1 = (   2.7988303135,   4.8555603354,  -0.0301835952)
 A2 = (   5.5988211622,   0.0000147434,  -0.0060680116)
 A3 = (   0.0053156640,   0.0665692788, -14.2516977513)


Analysis of symmetry for initial positions (statically):
=====================================================================
 Subroutine PRICEL returns:
 Original cell was already a primitive cell.
 

 Routine SETGRP: Setting up the symmetry group for a 
 triclinic supercell.


 Subroutine GETGRP returns: Found  1 space group operations
 (whereof  1 operations were pure point group operations)
 out of a pool of  2 trial point group operations.


The static configuration has the point symmetry C_1 .


Analysis of symmetry for dynamics (positions and initial velocities):
=====================================================================
 Subroutine PRICEL returns:
 Original cell was already a primitive cell.
 

 Routine SETGRP: Setting up the symmetry group for a 
 triclinic supercell.


 Subroutine GETGRP returns: Found  1 space group operations
 (whereof  1 operations were pure point group operations)
 out of a pool of  2 trial point group operations.


The dynamic configuration has the point symmetry C_1 .


Analysis of structural, dynamic, and magnetic symmetry:
=====================================================================
 Subroutine PRICEL returns:
 Original cell was already a primitive cell.
 

 Routine SETGRP: Setting up the symmetry group for a 
 triclinic supercell.


 Subroutine GETGRP returns: Found  1 space group operations
 (whereof  1 operations were pure point group operations)
 out of a pool of  2 trial point group operations.


The magnetic configuration has the point symmetry C_1 .


 Subroutine INISYM returns: Found  1 space group operations
 (whereof  1 operations are pure point group operations),
 and found     1 'primitive' translations

 
 
 KPOINTS: KPOINTS created by Atomic Simulation Env

Automatic generation of k-mesh.
Space group operators:
 irot       det(A)        alpha          n_x          n_y          n_z        tau_x        tau_y        tau_z
    1     1.000000     0.000000     1.000000     0.000000     0.000000     0.000000     0.000000     0.000000
 
 Subroutine IBZKPT returns following result:
 ===========================================
 
 Found     40 irreducible k-points:
 
 Following reciprocal coordinates:
            Coordinates               Weight
  0.000000  0.000000  0.000000      1.000000
  0.166667 -0.000000  0.000000      2.000000
  0.333333  0.000000  0.000000      2.000000
  0.500000 -0.000000  0.000000      1.000000
 -0.000000  0.166667  0.000000      2.000000
  0.166667  0.166667  0.000000      2.000000
  0.333333  0.166667  0.000000      2.000000
  0.500000  0.166667 -0.000000      2.000000
 -0.333333  0.166667  0.000000      2.000000
 -0.166667  0.166667  0.000000      2.000000
  0.000000  0.333333  0.000000      2.000000
  0.166667  0.333333 -0.000000      2.000000
  0.333333  0.333333  0.000000      2.000000
  0.500000  0.333333 -0.000000      2.000000
 -0.333333  0.333333  0.000000      2.000000
 -0.166667  0.333333  0.000000      2.000000
 -0.000000  0.500000  0.000000      1.000000
  0.166667  0.500000  0.000000      2.000000
  0.333333  0.500000  0.000000      2.000000
  0.500000  0.500000  0.000000      1.000000
 -0.000000  0.000000  0.500000      1.000000
  0.166667  0.000000  0.500000      2.000000
  0.333333 -0.000000  0.500000      2.000000
  0.500000 -0.000000  0.500000      1.000000
 -0.000000  0.166667  0.500000      2.000000
  0.166667  0.166667  0.500000      2.000000
  0.333333  0.166667  0.500000      2.000000
  0.500000  0.166667  0.500000      2.000000
 -0.333333  0.166667  0.500000      2.000000
 -0.166667  0.166667  0.500000      2.000000
 -0.000000  0.333333  0.500000      2.000000
  0.166667  0.333333  0.500000      2.000000
  0.333333  0.333333  0.500000      2.000000
  0.500000  0.333333  0.500000      2.000000
 -0.333333  0.333333  0.500000      2.000000
 -0.166667  0.333333  0.500000      2.000000
 -0.000000  0.500000  0.500000      1.000000
  0.166667  0.500000  0.500000      2.000000
  0.333333  0.500000  0.500000      2.000000
  0.500000  0.500000  0.500000      1.000000
 
 Following cartesian coordinates:
            Coordinates               Weight
  0.000000  0.000000  0.000000      1.000000
  0.029768  0.017167  0.000091      2.000000
  0.059536  0.034333  0.000183      2.000000
  0.089305  0.051500  0.000274      1.000000
  0.000000  0.034326  0.000160      2.000000
  0.029768  0.051492  0.000252      2.000000
  0.059537  0.068659  0.000343      2.000000
  0.089305  0.085826  0.000434      2.000000
 -0.059536 -0.000007 -0.000022      2.000000
 -0.029768  0.017159  0.000069      2.000000
  0.000000  0.068652  0.000321      2.000000
  0.029768  0.085818  0.000412      2.000000
  0.059537  0.102985  0.000503      2.000000
  0.089305  0.120151  0.000595      2.000000
 -0.059536  0.034319  0.000138      2.000000
 -0.029768  0.051485  0.000229      2.000000
  0.000000  0.102978  0.000481      1.000000
  0.029768  0.120144  0.000572      2.000000
  0.059537  0.137311  0.000664      2.000000
  0.089305  0.154477  0.000755      1.000000
  0.000038  0.000196  0.035084      1.000000
  0.029806  0.017363  0.035176      2.000000
  0.059574  0.034529  0.035267      2.000000
  0.089343  0.051696  0.035358      1.000000
  0.000038  0.034522  0.035245      2.000000
  0.029806  0.051689  0.035336      2.000000
  0.059575  0.068855  0.035427      2.000000
  0.089343  0.086022  0.035519      2.000000
 -0.059498  0.000189  0.035062      2.000000
 -0.029730  0.017355  0.035154      2.000000
  0.000038  0.068848  0.035405      2.000000
  0.029806  0.086014  0.035496      2.000000
  0.059575  0.103181  0.035588      2.000000
  0.089343  0.120348  0.035679      2.000000
 -0.059498  0.034515  0.035223      2.000000
 -0.029730  0.051681  0.035314      2.000000
  0.000038  0.103174  0.035565      1.000000
  0.029806  0.120340  0.035657      2.000000
  0.059575  0.137507  0.035748      2.000000
  0.089343  0.154673  0.035839      1.000000
 


--------------------------------------------------------------------------------------------------------




 Dimension of arrays:
   k-points           NKPTS =     40   k-points in BZ     NKDIM =     40   number of bands    NBANDS=    174
   number of dos      NEDOS =    301   number of ions     NIONS =     39
   non local maximal  LDIM  =      6   non local SUM 2l+1 LMDIM =     18
   total plane-waves  NPLWV = 116640
   max r-space proj   IRMAX =   2863   max aug-charges    IRDMAX=  12072
   dimension x,y,z NGX =    36 NGY =   36 NGZ =   90
   dimension x,y,z NGXF=    72 NGYF=   72 NGZF=  180
   support grid    NGXF=    72 NGYF=   72 NGZF=  180
   ions per type =              12  24   3
 NGX,Y,Z   is equivalent  to a cutoff of  10.69, 10.68, 10.50 a.u.
 NGXF,Y,Z  is equivalent  to a cutoff of  21.38, 21.36, 21.00 a.u.


 I would recommend the setting:
   dimension x,y,z NGX =    34 NGY =   34 NGZ =   85
 SYSTEM =  unknown system                          
 POSCAR =  Co  O Li                                

 Startparameter for this run:
   NWRITE =      2    write-flag & timer
   PREC   = normal    normal or accurate (medium, high low for compatibility)
   ISTART =      0    job   : 0-new  1-cont  2-samecut
   ICHARG =      2    charge: 1-file 2-atom 10-const
   ISPIN  =      2    spin polarized calculation?
   LNONCOLLINEAR =      F non collinear calculations
   LSORBIT =      F    spin-orbit coupling
   INIWAV =      1    electr: 0-lowe 1-rand  2-diag
   LASPH  =      F    aspherical Exc in radial PAW
   METAGGA=      F    non-selfconsistent MetaGGA calc.

 Electronic Relaxation 1
   ENCUT  =  600.0 eV  44.10 Ry    6.64 a.u.  11.18 11.19 28.46*2*pi/ulx,y,z
   ENINI  =  600.0     initial cutoff
   ENAUG  =  605.4 eV  augmentation charge cutoff
   NELM   =    500;   NELMIN=  2; NELMDL=  0     # of ELM steps 
   EDIFF  = 0.1E-05   stopping-criterion for ELM
   LREAL  =      T    real-space projection
   NLSPLINE    = F    spline interpolate recip. space projectors
   LCOMPAT=      F    compatible to vasp.4.4
   GGA_COMPAT  = T    GGA compatible to vasp.4.4-vasp.4.6
   LMAXPAW     = -100 max onsite density
   LMAXMIX     =    4 max onsite mixed and CHGCAR
   VOSKOWN=      0    Vosko Wilk Nusair interpolation
   ROPT   =   -0.00050  -0.00050  -0.00050
 Ionic relaxation
   EDIFFG = -.1E-01   stopping-criterion for IOM
   NSW    =    500    number of steps for IOM
   NBLOCK =      1;   KBLOCK =    500    inner block; outer block 
   IBRION =      2    ionic relax: 0-MD 1-quasi-New 2-CG
   NFREE  =      1    steps in history (QN), initial steepest desc. (CG)
   ISIF   =      3    stress and relaxation
   IWAVPR =     11    prediction:  0-non 1-charg 2-wave 3-comb
   ISYM   =      2    0-nonsym 1-usesym 2-fastsym
   LCORR  =      T    Harris-Foulkes like correction to forces

   POTIM  = 0.5000    time-step for ionic-motion
   TEIN   =    0.0    initial temperature
   TEBEG  =    0.0;   TEEND  =   0.0 temperature during run
   SMASS  =  -3.00    Nose mass-parameter (am)
   estimated Nose-frequenzy (Omega)   =  0.10E-29 period in steps =****** mass=  -0.716E-27a.u.
   SCALEE = 1.0000    scale energy and forces
   NPACO  =    256;   APACO  = 16.0  distance and # of slots for P.C.
   PSTRESS=    0.0 pullay stress

  Mass of Ions in am
   POMASS =  58.93 16.00  7.01
  Ionic Valenz
   ZVAL   =   9.00  6.00  1.00
  Atomic Wigner-Seitz radii
   RWIGS  =  -1.00 -1.00 -1.00
  virtual crystal weights 
   VCA    =   1.00  1.00  1.00
   NELECT =     255.0000    total number of electrons
   NUPDOWN=      -1.0000    fix difference up-down

 DOS related values:
   EMIN   =  10.00;   EMAX   =-10.00  energy-range for DOS
   EFERMI =   0.00
   ISMEAR =     0;   SIGMA  =   0.03  broadening in eV -4-tet -1-fermi 0-gaus

 Electronic relaxation 2 (details)
   IALGO  =     48    algorithm
   LDIAG  =      T    sub-space diagonalisation (order eigenvalues)
   LSUBROT=      F    optimize rotation matrix (better conditioning)
   TURBO    =      0    0=normal 1=particle mesh
   IRESTART =      0    0=no restart 2=restart with 2 vectors
   NREBOOT  =      0    no. of reboots
   NMIN     =      0    reboot dimension
   EREF     =   0.00    reference energy to select bands
   IMIX   =      4    mixing-type and parameters
     AMIX     =   0.40;   BMIX     =  1.00
     AMIX_MAG =   1.60;   BMIX_MAG =  1.00
     AMIN     =   0.10
     WC   =   100.;   INIMIX=   1;  MIXPRE=   1;  MAXMIX= -45

 Intra band minimization:
   WEIMIN = 0.0010     energy-eigenvalue tresh-hold
   EBREAK =  0.14E-08  absolut break condition
   DEPER  =   0.30     relativ break condition  

   TIME   =   0.40     timestep for ELM

  volume/ion in A,a.u.               =       9.93        67.04
  Fermi-wavevector in a.u.,A,eV,Ry     =   1.424048  2.691061 27.591445  2.027914
  Thomas-Fermi vector in A             =   2.544581
 
 Write flags
   LWAVE  =      F    write WAVECAR
   LCHARG =      F    write CHGCAR
   LVTOT  =      F    write LOCPOT, total local potential
   LVHAR  =      F    write LOCPOT, Hartree potential only
   LELF   =      F    write electronic localiz. function (ELF)
   LORBIT =      0    0 simple, 1 ext, 2 COOP (PROOUT)


 Dipole corrections
   LMONO  =      F    monopole corrections only (constant potential shift)
   LDIPOL =      F    correct potential (dipole corrections)
   IDIPOL =      0    1-x, 2-y, 3-z, 4-all directions 
   EPSILON=  1.0000000 bulk dielectric constant

 LDA+U is selected, type is set to LDAUTYPE =  2
   angular momentum for each species LDAUL =     2   -1   -1
   U (eV)           for each species LDAUU =   3.3  0.0  0.0
   J (eV)           for each species LDAUJ =   0.0  0.0  0.0
 Exchange correlation treatment:
   GGA     =    PE    GGA type
   LEXCH   =     8    internal setting for exchange type
   VOSKOWN=      0    Vosko Wilk Nusair interpolation
   LHFCALC =     F    Hartree Fock is set to
   LHFONE  =     F    Hartree Fock one center treatment
   AEXX    =    0.0000 exact exchange contribution

 Linear response parameters
   LEPSILON=     F    determine dielectric tensor
   LRPA    =     F    only Hartree local field effects (RPA)
   LNABLA  =     F    use nabla operator in PAW spheres
   LVEL    =     F    velocity operator in full k-point grid
   LINTERFAST=   F  fast interpolation
   KINTER  =     0    interpolate to denser k-point grid
   CSHIFT  =0.1000    complex shift for real part using Kramers Kronig
   OMEGAMAX=  -1.0    maximum frequency
   DEG_THRESHOLD= 0.2000000E-02 threshold for treating states as degnerate
   RTIME   =    0.100 relaxation time in fs

 Orbital magnetization related:
   ORBITALMAG=     F  switch on orbital magnetization
   LCHIMAG   =     F  perturbation theory with respect to B field
   DQ        =  0.001000  dq finite difference perturbation B field



--------------------------------------------------------------------------------------------------------


 conjugate gradient relaxation of ions
 charge density and potential will be updated during run
 spin polarized calculation
 RMM-DIIS sequential band-by-band
 perform sub-space diagonalisation
    before iterative eigenvector-optimisation
 modified Broyden-mixing scheme, WC =      100.0
 initial mixing is a Kerker type mixing with AMIX =  0.4000 and BMIX =      1.0000
 Hartree-type preconditioning will be used
 using additional bands           46
 real space projection scheme for non local part
 use partial core corrections
 calculate Harris-corrections to forces 
   (improved forces if not selfconsistent)
 use gradient corrections 
 use of overlap-Matrix (Vanderbilt PP)
 Gauss-broadening in eV      SIGMA  =   0.03


--------------------------------------------------------------------------------------------------------


  energy-cutoff  :      600.00
  volume of cell :      387.43
      direct lattice vectors                 reciprocal lattice vectors
     5.598821162  0.000014743 -0.006068012     0.178609349  0.102999291  0.000547725
    -2.799990849  4.855545592 -0.024115584     0.000000500  0.205955146  0.000962011
    -0.005315664 -0.066569279 14.251697751     0.000076048  0.000392355  0.070168940

  length of vectors
     5.598824451  5.605073890 14.251854213     0.206180633  0.205957393  0.070170078


 
 k-points in units of 2pi/SCALE and weight: KPOINTS created by Atomic Simulation Env
   0.00000000  0.00000000  0.00000000       0.014
   0.02976822  0.01716655  0.00009129       0.028
   0.05953645  0.03433310  0.00018258       0.028
   0.08930467  0.05149965  0.00027386       0.014
   0.00000008  0.03432586  0.00016034       0.028
   0.02976831  0.05149241  0.00025162       0.028
   0.05953653  0.06865895  0.00034291       0.028
   0.08930476  0.08582550  0.00043420       0.028
  -0.05953637 -0.00000724 -0.00002224       0.028
  -0.02976814  0.01715931  0.00006905       0.028
   0.00000017  0.06865172  0.00032067       0.028
   0.02976839  0.08581826  0.00041196       0.028
   0.05953662  0.10298481  0.00050325       0.028
   0.08930484  0.12015136  0.00059453       0.028
  -0.05953628  0.03431862  0.00013810       0.028
  -0.02976806  0.05148517  0.00022938       0.028
   0.00000025  0.10297757  0.00048101       0.014
   0.02976848  0.12014412  0.00057229       0.028
   0.05953670  0.13731067  0.00066358       0.028
   0.08930492  0.15447722  0.00075487       0.014
   0.00003802  0.00019618  0.03508447       0.014
   0.02980625  0.01736273  0.03517576       0.028
   0.05957447  0.03452927  0.03526705       0.028
   0.08934270  0.05169582  0.03535833       0.014
   0.00003811  0.03452204  0.03524481       0.028
   0.02980633  0.05168858  0.03533609       0.028
   0.05957456  0.06885513  0.03542738       0.028
   0.08934278  0.08602168  0.03551867       0.028
  -0.05949834  0.00018894  0.03506223       0.028
  -0.02973012  0.01735549  0.03515352       0.028
   0.00003819  0.06884789  0.03540514       0.028
   0.02980642  0.08601444  0.03549643       0.028
   0.05957464  0.10318099  0.03558772       0.028
   0.08934287  0.12034754  0.03567900       0.028
  -0.05949826  0.03451480  0.03522257       0.028
  -0.02973003  0.05168134  0.03531385       0.028
   0.00003827  0.10317375  0.03556548       0.014
   0.02980650  0.12034030  0.03565676       0.028
   0.05957472  0.13750685  0.03574805       0.028
   0.08934295  0.15467340  0.03583934       0.014
 
 k-points in reciprocal lattice and weights: KPOINTS created by Atomic Simulation Env
   0.00000000  0.00000000  0.00000000       0.014
   0.16666667 -0.00000000  0.00000000       0.028
   0.33333333  0.00000000  0.00000000       0.028
   0.50000000 -0.00000000  0.00000000       0.014
  -0.00000000  0.16666667  0.00000000       0.028
   0.16666667  0.16666667  0.00000000       0.028
   0.33333333  0.16666667  0.00000000       0.028
   0.50000000  0.16666667 -0.00000000       0.028
  -0.33333333  0.16666667  0.00000000       0.028
  -0.16666667  0.16666667  0.00000000       0.028
   0.00000000  0.33333333  0.00000000       0.028
   0.16666667  0.33333333 -0.00000000       0.028
   0.33333333  0.33333333  0.00000000       0.028
   0.50000000  0.33333333 -0.00000000       0.028
  -0.33333333  0.33333333  0.00000000       0.028
  -0.16666667  0.33333333  0.00000000       0.028
  -0.00000000  0.50000000  0.00000000       0.014
   0.16666667  0.50000000  0.00000000       0.028
   0.33333333  0.50000000  0.00000000       0.028
   0.50000000  0.50000000  0.00000000       0.014
  -0.00000000  0.00000000  0.50000000       0.014
   0.16666667  0.00000000  0.50000000       0.028
   0.33333333 -0.00000000  0.50000000       0.028
   0.50000000 -0.00000000  0.50000000       0.014
  -0.00000000  0.16666667  0.50000000       0.028
   0.16666667  0.16666667  0.50000000       0.028
   0.33333333  0.16666667  0.50000000       0.028
   0.50000000  0.16666667  0.50000000       0.028
  -0.33333333  0.16666667  0.50000000       0.028
  -0.16666667  0.16666667  0.50000000       0.028
  -0.00000000  0.33333333  0.50000000       0.028
   0.16666667  0.33333333  0.50000000       0.028
   0.33333333  0.33333333  0.50000000       0.028
   0.50000000  0.33333333  0.50000000       0.028
  -0.33333333  0.33333333  0.50000000       0.028
  -0.16666667  0.33333333  0.50000000       0.028
  -0.00000000  0.50000000  0.50000000       0.014
   0.16666667  0.50000000  0.50000000       0.028
   0.33333333  0.50000000  0.50000000       0.028
   0.50000000  0.50000000  0.50000000       0.014
 
 position of ions in fractional coordinates (direct lattice) 
   0.18069384  0.34640915  0.16514706
   0.00618424  0.00410346  0.49828662
   0.34495536  0.17054640  0.83202748
   0.18073682  0.84606228  0.16109278
   0.00690557  0.50466591  0.49464948
   0.34491511  0.67163759  0.83209500
   0.68131031  0.34638819  0.16495923
   0.50736338  0.00476681  0.50176626
   0.84476435  0.17133026  0.83523698
   0.68111901  0.84646646  0.16857963
   0.50728638  0.50499895  0.49817494
   0.84535625  0.67158337  0.82834642
   0.35088281  0.18678545  0.09562566
   0.02136535  0.01763449  0.23239493
   0.17145864  0.33089863  0.42927880
   0.33626445  0.17191845  0.56698212
   0.01072205  0.01023389  0.76356088
   0.18313332  0.33845896  0.90071129
   0.35504585  0.67554331  0.09713974
   0.01580156  0.51562754  0.22954271
   0.17976788  0.84349639  0.42989915
   0.33308704  0.66731475  0.56582570
   0.00798775  0.49394131  0.76447775
   0.17393300  0.83924490  0.89680665
   0.84412058  0.17280230  0.09953389
   0.51252728  0.01769044  0.23224039
   0.66602577  0.32700325  0.43075398
   0.84875498  0.18038791  0.56664515
   0.51634405  0.00810157  0.76746529
   0.67955053  0.34691148  0.90029168
   0.83539065  0.67551860  0.09720572
   0.51318990  0.50999427  0.23466737
   0.67187081  0.84181453  0.43373758
   0.84654005  0.67261198  0.56297556
   0.50630893  0.49772263  0.76298010
   0.68231731  0.83427159  0.89935016
   0.34341683  0.16515234  0.33167957
   0.18534125  0.35500044  0.66501559
   0.51448030  0.51980013  0.99883052
 
 position of ions in cartesian coordinates  (Angst):
   0.04085217  1.67101437  2.34417565
   0.02048609 -0.01324594  7.10129381
   1.44939225  0.77271344 11.85159810
  -1.35790982  4.09737280  2.27434561
  -1.37702624  2.41749996  7.03738268
   0.04611580  3.20578005 11.84047659
   2.84377393  1.67093248  2.33846147
   2.82462257 -0.01024929  7.14782747
   4.24552154  0.77631324 11.89428719
   1.44246909  4.09884428  2.37799989
   1.42356514  2.41888978  7.08458207
   2.84816797  3.20577371 11.78401753
   1.44102423  0.90058472  1.35619439
   0.06900902  0.07015502  3.31146742
   0.03117120  1.57811913  6.10893154
   1.39830055  0.79701925  8.07427143
   0.02731720 -0.00113841 10.88172703
   0.07286086  1.58344589 12.82739169
   0.09580677  3.27367007  1.36596071
  -1.35650242  2.48837276  3.25884274
  -1.35757920  4.06701977  6.10536057
  -0.00658818  3.20251551  8.04586302
  -1.34237286  2.34746396 10.88314561
  -1.38082544  4.01529469 12.75972300
   4.24170624  0.83243600  1.40923753
   2.81878101  0.07044420  3.30628325
   2.81106336  1.55911401  6.12704827
   4.24393074  0.83817309  8.06615504
   2.86415409 -0.01174443 10.93435478
   2.82854728  1.62452277 12.81819545
   2.78524024  3.27355274  1.36398681
   1.44403175  2.46068636  3.32899564
   1.40230592  4.05860513  6.15711907
   2.85332637  3.22843374  8.00200029
   1.43705857  2.36593137 10.85868668
   1.47943914  3.99098469 12.79300733
   1.45854125  0.77983013  4.72093034
   0.04015954  1.67945396  9.46791556
   1.41973814  2.45742937 14.21937357
 


--------------------------------------------------------------------------------------------------------


 k-point  1 :   0.0000 0.0000 0.0000  plane waves:   12965
 k-point  2 :   0.1667-0.0000 0.0000  plane waves:   12929
 k-point  3 :   0.3333 0.0000 0.0000  plane waves:   12913
 k-point  4 :   0.5000-0.0000 0.0000  plane waves:   12940
 k-point  5 :  -0.0000 0.1667 0.0000  plane waves:   12920
 k-point  6 :   0.1667 0.1667 0.0000  plane waves:   12919
 k-point  7 :   0.3333 0.1667 0.0000  plane waves:   12934
 k-point  8 :   0.5000 0.1667-0.0000  plane waves:   12941
 k-point  9 :  -0.3333 0.1667 0.0000  plane waves:   12928
 k-point 10 :  -0.1667 0.1667 0.0000  plane waves:   12925
 k-point 11 :   0.0000 0.3333 0.0000  plane waves:   12918
 k-point 12 :   0.1667 0.3333-0.0000  plane waves:   12945
 k-point 13 :   0.3333 0.3333 0.0000  plane waves:   12937
 k-point 14 :   0.5000 0.3333-0.0000  plane waves:   12939
 k-point 15 :  -0.3333 0.3333 0.0000  plane waves:   12911
 k-point 16 :  -0.1667 0.3333 0.0000  plane waves:   12921
 k-point 17 :  -0.0000 0.5000 0.0000  plane waves:   12912
 k-point 18 :   0.1667 0.5000 0.0000  plane waves:   12941
 k-point 19 :   0.3333 0.5000 0.0000  plane waves:   12938
 k-point 20 :   0.5000 0.5000 0.0000  plane waves:   12940
 k-point 21 :  -0.0000 0.0000 0.5000  plane waves:   12940
 k-point 22 :   0.1667 0.0000 0.5000  plane waves:   12892
 k-point 23 :   0.3333-0.0000 0.5000  plane waves:   12924
 k-point 24 :   0.5000-0.0000 0.5000  plane waves:   12942
 k-point 25 :  -0.0000 0.1667 0.5000  plane waves:   12908
 k-point 26 :   0.1667 0.1667 0.5000  plane waves:   12921
 k-point 27 :   0.3333 0.1667 0.5000  plane waves:   12946
 k-point 28 :   0.5000 0.1667 0.5000  plane waves:   12940
 k-point 29 :  -0.3333 0.1667 0.5000  plane waves:   12916
 k-point 30 :  -0.1667 0.1667 0.5000  plane waves:   12895
 k-point 31 :  -0.0000 0.3333 0.5000  plane waves:   12928
 k-point 32 :   0.1667 0.3333 0.5000  plane waves:   12942
 k-point 33 :   0.3333 0.3333 0.5000  plane waves:   12933
 k-point 34 :   0.5000 0.3333 0.5000  plane waves:   12946
 k-point 35 :  -0.3333 0.3333 0.5000  plane waves:   12934
 k-point 36 :  -0.1667 0.3333 0.5000  plane waves:   12921
 k-point 37 :  -0.0000 0.5000 0.5000  plane waves:   12934
 k-point 38 :   0.1667 0.5000 0.5000  plane waves:   12941
 k-point 39 :   0.3333 0.5000 0.5000  plane waves:   12932
 k-point 40 :   0.5000 0.5000 0.5000  plane waves:   12934

 maximum and minimum number of plane-waves per node :      1635     1583

 maximum number of plane-waves:     12965
 maximum index in each direction: 
   IXMAX=   11   IYMAX=   11   IZMAX=   28
   IXMIN=  -11   IYMIN=  -11   IZMIN=  -28

 WARNING: aliasing errors must be expected set NGX to  46 to avoid them
 WARNING: aliasing errors must be expected set NGY to  46 to avoid them
 WARNING: aliasing errors must be expected set NGZ to 114 to avoid them
 aliasing errors are usually negligible using standard VASP settings
 and one can safely disregard these warnings

 real space projection operators:
  total allocation   :       7433.41 KBytes
  max/ min on nodes  :       1040.15        819.89


 parallel 3D FFT for wavefunctions:
    minimum data exchange during FFTs selected (reduces bandwidth)
 parallel 3D FFT for charge:
    minimum data exchange during FFTs selected (reduces bandwidth)


 total amount of memory used by VASP on root node   101047. kBytes
========================================================================

   base      :      30000. kBytes
   nonlr-proj:       3160. kBytes
   fftplans  :       1322. kBytes
   grid      :       3603. kBytes
   one-center:        155. kBytes
   wavefun   :      62807. kBytes
 
     INWAV:  cpu time    0.0001: real time    0.0001
 Broyden mixing: mesh for mixing (old mesh)
   NGX = 23   NGY = 23   NGZ = 57
  (NGX  = 72   NGY  = 72   NGZ  =180)
  gives a total of  30153 points

 initial charge density was supplied:
 charge density of overlapping atoms calculated
 number of electron     255.0000000 magnetization      39.0000000
 keeping initial charge density in first step


--------------------------------------------------------------------------------------------------------


 Maximum index for non-local projection operator          468
 Maximum index for augmentation-charges          559 (set IRDMAX)


--------------------------------------------------------------------------------------------------------


 First call to EWALD:  gamma=   0.243
 Maximum number of real-space cells 4x 4x 2
 Maximum number of reciprocal cells 2x 2x 5

 FEWALD executed in parallel
    FEWALD:  cpu time    0.0019: real time    0.0019


----------------------------------------- Iteration    1(   1)  ---------------------------------------


    POTLOK:  cpu time    0.0290: real time    0.0294
    SETDIJ:  cpu time    0.0063: real time    0.0063
    EDDIAG:  cpu time    2.6257: real time    2.6442
  RMM-DIIS:  cpu time    3.2765: real time    3.2974
    ORTHCH:  cpu time    0.5688: real time    0.5712
       DOS:  cpu time    0.0082: real time    0.0082
    --------------------------------------------
      LOOP:  cpu time    6.5174: real time    6.5607

 eigenvalue-minimisations  : 13920
 total energy-change (2. order) : 0.2624405E+04  (-0.1189180E+05)
 number of electron     255.0000000 magnetization      39.0000000
 augmentation part      255.0000000 magnetization      39.0000000

 Free energy of the ion-electron system (eV)
  ---------------------------------------------------
  alpha Z        PSCENC =       742.72943424
  Ewald energy   TEWEN  =    -13535.12452502
  -Hartree energ DENC   =     -7295.03691549
  -exchange      EXHF   =         0.00000000
  -V(xc)+E(xc)   XCENC  =       858.18135661
  PAW double counting   =     16987.12331697   -17539.45435603
  entropy T*S    EENTRO =        -0.00996644
  eigenvalues    EBANDS =      2253.02582984
  atomic energy  EATOM  =     20152.97065086
  Solvation  Ediel_sol  =         0.00000000
  ---------------------------------------------------
  free energy    TOTEN  =      2624.40482554 eV

  energy without entropy =     2624.41479199  energy(sigma->0) =     2624.40980876


--------------------------------------------------------------------------------------------------------




----------------------------------------- Iteration    1(   2)  ---------------------------------------


    EDDIAG:  cpu time    2.8080: real time    2.8357
  RMM-DIIS:  cpu time    3.2866: real time    3.3146
    ORTHCH:  cpu time    0.6123: real time    0.6160
       DOS:  cpu time    0.0079: real time    0.0080
    --------------------------------------------
      LOOP:  cpu time    6.7170: real time    6.7847

 eigenvalue-minimisations  : 13920
 total energy-change (2. order) :-0.1942787E+04  (-0.2308107E+04)
 number of electron     255.0000000 magnetization      39.0000000
 augmentation part      255.0000000 magnetization      39.0000000

 Free energy of the ion-electron system (eV)
  ---------------------------------------------------
  alpha Z        PSCENC =       742.72943424
  Ewald energy   TEWEN  =    -13535.12452502
  -Hartree energ DENC   =     -7295.03691549
  -exchange      EXHF   =         0.00000000
  -V(xc)+E(xc)   XCENC  =       858.18135661
  PAW double counting   =     16987.12331697   -17539.45435603
  entropy T*S    EENTRO =        -0.00615998
  eigenvalues    EBANDS =       310.23468544
  atomic energy  EATOM  =     20152.97065086
  Solvation  Ediel_sol  =         0.00000000
  ---------------------------------------------------
  free energy    TOTEN  =       681.61748761 eV

  energy without entropy =      681.62364758  energy(sigma->0) =      681.62056759


--------------------------------------------------------------------------------------------------------




----------------------------------------- Iteration    1(   3)  ---------------------------------------


    EDDIAG:  cpu time    2.6880: real time    2.7101
  RMM-DIIS:  cpu time    3.2763: real time    3.3104
    ORTHCH:  cpu time    0.5745: real time    0.5792
       DOS:  cpu time    0.0077: real time    0.0077
    --------------------------------------------
      LOOP:  cpu time    6.5481: real time    6.6181

 eigenvalue-minimisations  : 13920
 total energy-change (2. order) :-0.5837031E+03  (-0.5651561E+03)
 number of electron     255.0000000 magnetization      39.0000000
 augmentation part      255.0000000 magnetization      39.0000000

 Free energy of the ion-electron system (eV)
  ---------------------------------------------------
  alpha Z        PSCENC =       742.72943424
  Ewald energy   TEWEN  =    -13535.12452502
  -Hartree energ DENC   =     -7295.03691549
  -exchange      EXHF   =         0.00000000
  -V(xc)+E(xc)   XCENC  =       858.18135661
  PAW double counting   =     16987.12331697   -17539.45435603
  entropy T*S    EENTRO =        -0.01924664
  eigenvalues    EBANDS =      -273.45537554
  atomic energy  EATOM  =     20152.97065086
  Solvation  Ediel_sol  =         0.00000000
  ---------------------------------------------------
  free energy    TOTEN  =        97.91433996 eV

  energy without entropy =       97.93358661  energy(sigma->0) =       97.92396329


--------------------------------------------------------------------------------------------------------




----------------------------------------- Iteration    1(   4)  ---------------------------------------


    EDDIAG:  cpu time    2.5808: real time    2.6002
  RMM-DIIS:  cpu time    3.2727: real time    3.2954
    ORTHCH:  cpu time    0.5641: real time    0.5672
       DOS:  cpu time    0.0081: real time    0.0082
    --------------------------------------------
      LOOP:  cpu time    6.4277: real time    6.4821

 eigenvalue-minimisations  : 13920
 total energy-change (2. order) :-0.2160278E+03  (-0.1787739E+03)
 number of electron     255.0000000 magnetization      39.0000000
 augmentation part      255.0000000 magnetization      39.0000000

 Free energy of the ion-electron system (eV)
  ---------------------------------------------------
  alpha Z        PSCENC =       742.72943424
  Ewald energy   TEWEN  =    -13535.12452502
  -Hartree energ DENC   =     -7295.03691549
  -exchange      EXHF   =         0.00000000
  -V(xc)+E(xc)   XCENC  =       858.18135661
  PAW double counting   =     16987.12331697   -17539.45435603
  entropy T*S    EENTRO =        -0.01799705
  eigenvalues    EBANDS =      -489.48441695
  atomic energy  EATOM  =     20152.97065086
  Solvation  Ediel_sol  =         0.00000000
  ---------------------------------------------------
  free energy    TOTEN  =      -118.11345185 eV

  energy without entropy =     -118.09545481  energy(sigma->0) =     -118.10445333


--------------------------------------------------------------------------------------------------------




----------------------------------------- Iteration    1(   5)  ---------------------------------------


    EDDIAG:  cpu time    2.5599: real time    2.5782
  RMM-DIIS:  cpu time    3.2831: real time    3.3063
    ORTHCH:  cpu time    0.6305: real time    0.6340
       DOS:  cpu time    0.0083: real time    0.0084
    --------------------------------------------
      LOOP:  cpu time    6.4836: real time    6.5368

 eigenvalue-minimisations  : 13920
 total energy-change (2. order) :-0.1152256E+03  (-0.7327044E+02)
 number of electron     255.0000000 magnetization      39.0000000
 augmentation part      255.0000000 magnetization      39.0000000

 Free energy of the ion-electron system (eV)
  ---------------------------------------------------
  alpha Z        PSCENC =       742.72943424
  Ewald energy   TEWEN  =    -13535.12452502
  -Hartree energ DENC   =     -7295.03691549
  -exchange      EXHF   =         0.00000000
  -V(xc)+E(xc)   XCENC  =       858.18135661
  PAW double counting   =     16987.12331697   -17539.45435603
  entropy T*S    EENTRO =        -0.04238490
  eigenvalues    EBANDS =      -604.68560783
  atomic energy  EATOM  =     20152.97065086
  Solvation  Ediel_sol  =         0.00000000
  ---------------------------------------------------
  free energy    TOTEN  =      -233.33903059 eV

  energy without entropy =     -233.29664569  energy(sigma->0) =     -233.31783814


--------------------------------------------------------------------------------------------------------




----------------------------------------- Iteration    1(   6)  ---------------------------------------


    EDDIAG:  cpu time    2.8076: real time    2.8281
  RMM-DIIS:  cpu time    3.5760: real time    3.5999
    ORTHCH:  cpu time    0.5992: real time    0.6021
       DOS:  cpu time    0.0082: real time    0.0082
    --------------------------------------------
      LOOP:  cpu time    6.9934: real time    7.0502

 eigenvalue-minimisations  : 13920
 total energy-change (2. order) :-0.3079339E+02  (-0.2042755E+02)
 number of electron     255.0000000 magnetization      39.0000000
 augmentation part      255.0000000 magnetization      39.0000000

 Free energy of the ion-electron system (eV)
  ---------------------------------------------------
  alpha Z        PSCENC =       742.72943424
  Ewald energy   TEWEN  =    -13535.12452502
  -Hartree energ DENC   =     -7295.03691549
  -exchange      EXHF   =         0.00000000
  -V(xc)+E(xc)   XCENC  =       858.18135661
  PAW double counting   =     16987.12331697   -17539.45435603
  entropy T*S    EENTRO =        -0.03068876
  eigenvalues    EBANDS =      -635.49069718
  atomic energy  EATOM  =     20152.97065086
  Solvation  Ediel_sol  =         0.00000000
  ---------------------------------------------------
  free energy    TOTEN  =      -264.13242380 eV

  energy without entropy =     -264.10173504  energy(sigma->0) =     -264.11707942


--------------------------------------------------------------------------------------------------------




----------------------------------------- Iteration    1(   7)  ---------------------------------------


    EDDIAG:  cpu time    2.5309: real time    2.5470
  RMM-DIIS:  cpu time    3.6309: real time    3.6594
    ORTHCH:  cpu time    0.6212: real time    0.6251
       DOS:  cpu time    0.0082: real time    0.0082
    --------------------------------------------
      LOOP:  cpu time    6.7930: real time    6.8496

 eigenvalue-minimisations  : 13920
 total energy-change (2. order) :-0.1070316E+02  (-0.7964109E+01)
 number of electron     255.0000000 magnetization      39.0000000
 augmentation part      255.0000000 magnetization      39.0000000

 Free energy of the ion-electron system (eV)
  ---------------------------------------------------
  alpha Z        PSCENC =       742.72943424
  Ewald energy   TEWEN  =    -13535.12452502
  -Hartree energ DENC   =     -7295.03691549
  -exchange      EXHF   =         0.00000000
  -V(xc)+E(xc)   XCENC  =       858.18135661
  PAW double counting   =     16987.12331697   -17539.45435603
  entropy T*S    EENTRO =        -0.03213154
  eigenvalues    EBANDS =      -646.19241295
  atomic energy  EATOM  =     20152.97065086
  Solvation  Ediel_sol  =         0.00000000
  ---------------------------------------------------
  free energy    TOTEN  =      -274.83558235 eV

  energy without entropy =     -274.80345080  energy(sigma->0) =     -274.81951658


--------------------------------------------------------------------------------------------------------




----------------------------------------- Iteration    1(   8)  ---------------------------------------


    EDDIAG:  cpu time    2.7365: real time    2.7538
  RMM-DIIS:  cpu time    3.2759: real time    3.3011
    ORTHCH:  cpu time    0.5704: real time    0.5736
       DOS:  cpu time    0.0085: real time    0.0086
    --------------------------------------------
      LOOP:  cpu time    6.5937: real time    6.6519

 eigenvalue-minimisations  : 13920
 total energy-change (2. order) :-0.2464650E+01  (-0.1712040E+01)
 number of electron     255.0000000 magnetization      39.0000000
 augmentation part      255.0000000 magnetization      39.0000000

 Free energy of the ion-electron system (eV)
  ---------------------------------------------------
  alpha Z        PSCENC =       742.72943424
  Ewald energy   TEWEN  =    -13535.12452502
  -Hartree energ DENC   =     -7295.03691549
  -exchange      EXHF   =         0.00000000
  -V(xc)+E(xc)   XCENC  =       858.18135661
  PAW double counting   =     16987.12331697   -17539.45435603
  entropy T*S    EENTRO =        -0.03327139
  eigenvalues    EBANDS =      -648.65592306
  atomic energy  EATOM  =     20152.97065086
  Solvation  Ediel_sol  =         0.00000000
  ---------------------------------------------------
  free energy    TOTEN  =      -277.30023230 eV

  energy without entropy =     -277.26696091  energy(sigma->0) =     -277.28359661


--------------------------------------------------------------------------------------------------------




----------------------------------------- Iteration    1(   9)  ---------------------------------------


    EDDIAG:  cpu time    2.5926: real time    2.6105
  RMM-DIIS:  cpu time    8.2425: real time    8.2997
    ORTHCH:  cpu time    0.5681: real time    0.5724
       DOS:  cpu time    0.0080: real time    0.0081
    --------------------------------------------
      LOOP:  cpu time   11.4129: real time   11.5029

 eigenvalue-minimisations  : 37405
 total energy-change (2. order) :-0.1231570E+01  (-0.1051675E+01)
 number of electron     255.0000000 magnetization      39.0000000
 augmentation part      255.0000000 magnetization      39.0000000

 Free energy of the ion-electron system (eV)
  ---------------------------------------------------
  alpha Z        PSCENC =       742.72943424
  Ewald energy   TEWEN  =    -13535.12452502
  -Hartree energ DENC   =     -7295.03691549
  -exchange      EXHF   =         0.00000000
  -V(xc)+E(xc)   XCENC  =       858.18135661
  PAW double counting   =     16987.12331697   -17539.45435603
  entropy T*S    EENTRO =        -0.03400953
  eigenvalues    EBANDS =      -649.88675528
  atomic energy  EATOM  =     20152.97065086
  Solvation  Ediel_sol  =         0.00000000
  ---------------------------------------------------
  free energy    TOTEN  =      -278.53180267 eV

  energy without entropy =     -278.49779314  energy(sigma->0) =     -278.51479790


--------------------------------------------------------------------------------------------------------




----------------------------------------- Iteration    1(  10)  ---------------------------------------


    EDDIAG:  cpu time    2.5816: real time    2.6002
  RMM-DIIS:  cpu time    8.3653: real time    8.4208
    ORTHCH:  cpu time    0.5628: real time    0.5653
       DOS:  cpu time    0.0084: real time    0.0084
    --------------------------------------------
      LOOP:  cpu time   11.5197: real time   11.6055

 eigenvalue-minimisations  : 38196
 total energy-change (2. order) : 0.1812133E-01  (-0.2685857E-01)
 number of electron     255.0000000 magnetization      39.0000000
 augmentation part      255.0000000 magnetization      39.0000000

 Free energy of the ion-electron system (eV)
  ---------------------------------------------------
  alpha Z        PSCENC =       742.72943424
  Ewald energy   TEWEN  =    -13535.12452502
  -Hartree energ DENC   =     -7295.03691549
  -exchange      EXHF   =         0.00000000
  -V(xc)+E(xc)   XCENC  =       858.18135661
  PAW double counting   =     16987.12331697   -17539.45435603
  entropy T*S    EENTRO =        -0.03399011
  eigenvalues    EBANDS =      -649.86865337
  atomic energy  EATOM  =     20152.97065086
  Solvation  Ediel_sol  =         0.00000000
  ---------------------------------------------------
  free energy    TOTEN  =      -278.51368134 eV

  energy without entropy =     -278.47969123  energy(sigma->0) =     -278.49668628


--------------------------------------------------------------------------------------------------------




----------------------------------------- Iteration    1(  11)  ---------------------------------------


    EDDIAG:  cpu time    2.8418: real time    2.8636
  RMM-DIIS:  cpu time    9.2511: real time    9.3250
    ORTHCH:  cpu time    0.5929: real time    0.5974
       DOS:  cpu time    0.0082: real time    0.0082
    --------------------------------------------
      LOOP:  cpu time   12.6955: real time   12.8038

 eigenvalue-minimisations  : 39402
 total energy-change (2. order) :-0.1380603E-02  (-0.2402096E-02)
 number of electron     255.0000000 magnetization      39.0000000
 augmentation part      255.0000000 magnetization      39.0000000

 Free energy of the ion-electron system (eV)
  ---------------------------------------------------
  alpha Z        PSCENC =       742.72943424
  Ewald energy   TEWEN  =    -13535.12452502
  -Hartree energ DENC   =     -7295.03691549
  -exchange      EXHF   =         0.00000000
  -V(xc)+E(xc)   XCENC  =       858.18135661
  PAW double counting   =     16987.12331697   -17539.45435603
  entropy T*S    EENTRO =        -0.03399152
  eigenvalues    EBANDS =      -649.87003256
  atomic energy  EATOM  =     20152.97065086
  Solvation  Ediel_sol  =         0.00000000
  ---------------------------------------------------
  free energy    TOTEN  =      -278.51506194 eV

  energy without entropy =     -278.48107042  energy(sigma->0) =     -278.49806618


--------------------------------------------------------------------------------------------------------




----------------------------------------- Iteration    1(  12)  ---------------------------------------


    EDDIAG:  cpu time    2.7358: real time    2.7549
  RMM-DIIS:  cpu time    8.4694: real time    8.5263
    ORTHCH:  cpu time    0.5624: real time    0.5656
       DOS:  cpu time    0.0085: real time    0.0085
    CHARGE:  cpu time    0.3697: real time    0.3725
    MIXING:  cpu time    0.0007: real time    0.0007
    --------------------------------------------
      LOOP:  cpu time   12.1488: real time   12.2394

 eigenvalue-minimisations  : 38513
 total energy-change (2. order) :-0.1399058E-03  (-0.1492947E-03)
 number of electron     254.9999993 magnetization      31.3912372
 augmentation part       66.5922927 magnetization      28.8448662

 Broyden mixing:
  rms(total) = 0.97976E+01    rms(broyden)= 0.97974E+01
  rms(prec ) = 0.10625E+02
  weight for this iteration     100.00

 Free energy of the ion-electron system (eV)
  ---------------------------------------------------
  alpha Z        PSCENC =       742.72943424
  Ewald energy   TEWEN  =    -13535.12452502
  -Hartree energ DENC   =     -7295.03691549
  -exchange      EXHF   =         0.00000000
  -V(xc)+E(xc)   XCENC  =       858.18135661
  PAW double counting   =     16987.12331697   -17539.45435603
  entropy T*S    EENTRO =        -0.03399190
  eigenvalues    EBANDS =      -649.87017209
  atomic energy  EATOM  =     20152.97065086
  Solvation  Ediel_sol  =         0.00000000
  ---------------------------------------------------
  free energy    TOTEN  =      -278.51520185 eV

  energy without entropy =     -278.48120995  energy(sigma->0) =     -278.49820590


--------------------------------------------------------------------------------------------------------




----------------------------------------- Iteration    1(  13)  ---------------------------------------


    POTLOK:  cpu time    0.0256: real time    0.0259
    SETDIJ:  cpu time    0.0057: real time    0.0057
    EDDIAG:  cpu time    2.5685: real time    2.5853
  RMM-DIIS:  cpu time    6.9477: real time    6.9932
    ORTHCH:  cpu time    0.5725: real time    0.5763
       DOS:  cpu time    0.0081: real time    0.0081
    CHARGE:  cpu time    0.3513: real time    0.3526
    MIXING:  cpu time    0.0007: real time    0.0007
    --------------------------------------------
      LOOP:  cpu time   10.4818: real time   10.5577

 eigenvalue-minimisations  : 31322
 total energy-change (2. order) :-0.5123391E+02  (-0.9559766E+02)
 number of electron     254.9999992 magnetization      29.6038442
 augmentation part       96.1897145 magnetization      23.9250100

 Broyden mixing:
  rms(total) = 0.16576E+02    rms(broyden)= 0.16575E+02
  rms(prec ) = 0.17709E+02
  weight for this iteration     100.00

 eigenvalues of (default mixing * dielectric matrix)
  average eigenvalue GAMMA=   0.2682
  0.2682

 Free energy of the ion-electron system (eV)
  ---------------------------------------------------
  alpha Z        PSCENC =       742.72943424
  Ewald energy   TEWEN  =    -13535.12452502
  -Hartree energ DENC   =     -7131.05686132
  -exchange      EXHF   =         0.00000000
  -V(xc)+E(xc)   XCENC  =       886.77199306
  PAW double counting   =     19348.89899309   -19774.22183046
  entropy T*S    EENTRO =        -0.01870511
  eigenvalues    EBANDS =     -1020.69826247
  atomic energy  EATOM  =     20152.97065086
  Solvation  Ediel_sol  =         0.00000000
  ---------------------------------------------------
  free energy    TOTEN  =      -329.74911314 eV

  energy without entropy =     -329.73040803  energy(sigma->0) =     -329.73976058


--------------------------------------------------------------------------------------------------------




----------------------------------------- Iteration    1(  14)  ---------------------------------------


    POTLOK:  cpu time    0.0250: real time    0.0251
    SETDIJ:  cpu time    0.0056: real time    0.0057
    EDDIAG:  cpu time    2.8234: real time    2.8446
  RMM-DIIS:  cpu time    6.1531: real time    6.2014
    ORTHCH:  cpu time    0.5741: real time    0.5772
       DOS:  cpu time    0.0074: real time    0.0074
    CHARGE:  cpu time    0.3636: real time    0.3661
    MIXING:  cpu time    0.0007: real time    0.0007
    --------------------------------------------
      LOOP:  cpu time    9.9547: real time   10.0376

 eigenvalue-minimisations  : 27840
 total energy-change (2. order) : 0.1435598E+03  (-0.1283267E+02)
 number of electron     255.0000000 magnetization      24.8267411
 augmentation part       78.6448205 magnetization      19.9125818

 Broyden mixing:
  rms(total) = 0.38346E+01    rms(broyden)= 0.38343E+01
  rms(prec ) = 0.41432E+01
  weight for this iteration     100.00

 eigenvalues of (default mixing * dielectric matrix)
  average eigenvalue GAMMA=   0.5790
  0.8057  0.3523

 Free energy of the ion-electron system (eV)
  ---------------------------------------------------
  alpha Z        PSCENC =       742.72943424
  Ewald energy   TEWEN  =    -13535.12452502
  -Hartree energ DENC   =     -7253.01629551
  -exchange      EXHF   =         0.00000000
  -V(xc)+E(xc)   XCENC  =       882.49951486
  PAW double counting   =     20291.87513471   -20806.74729978
  entropy T*S    EENTRO =        -0.00851842
  eigenvalues    EBANDS =      -661.36736376
  atomic energy  EATOM  =     20152.97065086
  Solvation  Ediel_sol  =         0.00000000
  ---------------------------------------------------
  free energy    TOTEN  =      -186.18926782 eV

  energy without entropy =     -186.18074940  energy(sigma->0) =     -186.18500861


--------------------------------------------------------------------------------------------------------




----------------------------------------- Iteration    1(  15)  ---------------------------------------


    POTLOK:  cpu time    0.0252: real time    0.0254
    SETDIJ:  cpu time    0.0056: real time    0.0056
    EDDIAG:  cpu time    2.6406: real time    2.6703
  RMM-DIIS:  cpu time    6.7144: real time    6.7639
    ORTHCH:  cpu time    0.6321: real time    0.6383
       DOS:  cpu time    0.0082: real time    0.0082
    CHARGE:  cpu time    0.4088: real time    0.4113
    MIXING:  cpu time    0.0008: real time    0.0008
    --------------------------------------------
      LOOP:  cpu time   10.4373: real time   10.5340

 eigenvalue-minimisations  : 27924
 total energy-change (2. order) :-0.3820754E+02  (-0.4268165E+01)
 number of electron     254.9999974 magnetization      23.6211152
 augmentation part       74.1794307 magnetization      18.9305562

 Broyden mixing:
  rms(total) = 0.10312E+02    rms(broyden)= 0.10312E+02
  rms(prec ) = 0.11805E+02
  weight for this iteration     100.00

 eigenvalues of (default mixing * dielectric matrix)
  average eigenvalue GAMMA=   0.4733
  0.9351  0.3375  0.1472

 Free energy of the ion-electron system (eV)
  ---------------------------------------------------
  alpha Z        PSCENC =       742.72943424
  Ewald energy   TEWEN  =    -13535.12452502
  -Hartree energ DENC   =     -7267.15610036
  -exchange      EXHF   =         0.00000000
  -V(xc)+E(xc)   XCENC  =       875.37773967
  PAW double counting   =     21453.74760175   -21986.29212131
  entropy T*S    EENTRO =        -0.01901389
  eigenvalues    EBANDS =      -660.63047321
  atomic energy  EATOM  =     20152.97065086
  Solvation  Ediel_sol  =         0.00000000
  ---------------------------------------------------
  free energy    TOTEN  =      -224.39680727 eV

  energy without entropy =     -224.37779338  energy(sigma->0) =     -224.38730032


--------------------------------------------------------------------------------------------------------




----------------------------------------- Iteration    1(  16)  ---------------------------------------


    POTLOK:  cpu time    0.0281: real time    0.0283
    SETDIJ:  cpu time    0.0063: real time    0.0063
    EDDIAG:  cpu time    2.6122: real time    2.6310
  RMM-DIIS:  cpu time    6.1613: real time    6.2034
    ORTHCH:  cpu time    0.5699: real time    0.5728
       DOS:  cpu time    0.0079: real time    0.0080
    CHARGE:  cpu time    0.3510: real time    0.3536
    MIXING:  cpu time    0.0008: real time    0.0008
    --------------------------------------------
      LOOP:  cpu time    9.7394: real time    9.8142

 eigenvalue-minimisations  : 27843
 total energy-change (2. order) : 0.2759976E+02  (-0.1741097E+01)
 number of electron     255.0000004 magnetization      22.0079938
 augmentation part       75.7418518 magnetization      18.1989695

 Broyden mixing:
  rms(total) = 0.30050E+01    rms(broyden)= 0.30049E+01
  rms(prec ) = 0.34170E+01
  weight for this iteration     100.00

 eigenvalues of (default mixing * dielectric matrix)
  average eigenvalue GAMMA=   0.4661
  1.0260  0.4063  0.2921  0.1397

 Free energy of the ion-electron system (eV)
  ---------------------------------------------------
  alpha Z        PSCENC =       742.72943424
  Ewald energy   TEWEN  =    -13535.12452502
  -Hartree energ DENC   =     -7271.12820998
  -exchange      EXHF   =         0.00000000
  -V(xc)+E(xc)   XCENC  =       873.47118892
  PAW double counting   =     21821.19426800   -22360.61277061
  entropy T*S    EENTRO =        -0.00851677
  eigenvalues    EBANDS =      -620.28856250
  atomic energy  EATOM  =     20152.97065086
  Solvation  Ediel_sol  =         0.00000000
  ---------------------------------------------------
  free energy    TOTEN  =      -196.79704285 eV

  energy without entropy =     -196.78852608  energy(sigma->0) =     -196.79278446


--------------------------------------------------------------------------------------------------------




----------------------------------------- Iteration    1(  17)  ---------------------------------------


    POTLOK:  cpu time    0.0251: real time    0.0252
    SETDIJ:  cpu time    0.0057: real time    0.0057
    EDDIAG:  cpu time    2.5679: real time    2.5861
  RMM-DIIS:  cpu time    6.2144: real time    6.2547
    ORTHCH:  cpu time    0.5675: real time    0.5696
       DOS:  cpu time    0.0076: real time    0.0076
    CHARGE:  cpu time    0.3847: real time    0.3870
    MIXING:  cpu time    0.0009: real time    0.0009
    --------------------------------------------
      LOOP:  cpu time    9.7755: real time    9.8465

 eigenvalue-minimisations  : 27905
 total energy-change (2. order) :-0.5440967E+01  (-0.1124113E+01)
 number of electron     254.9999992 magnetization      19.7006311
 augmentation part       75.6625870 magnetization      15.7252659

 Broyden mixing:
  rms(total) = 0.32808E+01    rms(broyden)= 0.32808E+01
  rms(prec ) = 0.39594E+01
  weight for this iteration     100.00

 eigenvalues of (default mixing * dielectric matrix)
  average eigenvalue GAMMA=   0.4672
  1.1768  0.5335  0.3030  0.1830  0.1398

 Free energy of the ion-electron system (eV)
  ---------------------------------------------------
  alpha Z        PSCENC =       742.72943424
  Ewald energy   TEWEN  =    -13535.12452502
  -Hartree energ DENC   =     -7275.46970578
  -exchange      EXHF   =         0.00000000
  -V(xc)+E(xc)   XCENC  =       872.02785456
  PAW double counting   =     22165.68656777   -22707.66154050
  entropy T*S    EENTRO =        -0.00962630
  eigenvalues    EBANDS =      -617.38711956
  atomic energy  EATOM  =     20152.97065086
  Solvation  Ediel_sol  =         0.00000000
  ---------------------------------------------------
  free energy    TOTEN  =      -202.23800973 eV

  energy without entropy =     -202.22838343  energy(sigma->0) =     -202.23319658


--------------------------------------------------------------------------------------------------------




----------------------------------------- Iteration    1(  18)  ---------------------------------------


    POTLOK:  cpu time    0.0267: real time    0.0269
    SETDIJ:  cpu time    0.0058: real time    0.0058
    EDDIAG:  cpu time    2.6962: real time    2.7148
  RMM-DIIS:  cpu time    6.1867: real time    6.2270
    ORTHCH:  cpu time    0.5643: real time    0.5675
       DOS:  cpu time    0.0083: real time    0.0083
    CHARGE:  cpu time    0.3545: real time    0.3567
    MIXING:  cpu time    0.0009: real time    0.0009
    --------------------------------------------
      LOOP:  cpu time    9.8454: real time    9.9177

 eigenvalue-minimisations  : 27904
 total energy-change (2. order) :-0.3658235E+01  (-0.5403323E+00)
 number of electron     254.9999996 magnetization      18.2960386
 augmentation part       75.7620714 magnetization      15.0315695

 Broyden mixing:
  rms(total) = 0.24933E+01    rms(broyden)= 0.24932E+01
  rms(prec ) = 0.29884E+01
  weight for this iteration     100.00

 eigenvalues of (default mixing * dielectric matrix)
  average eigenvalue GAMMA=   0.4567
  1.2861  0.5804  0.2914  0.2914  0.1453  0.1453

 Free energy of the ion-electron system (eV)
  ---------------------------------------------------
  alpha Z        PSCENC =       742.72943424
  Ewald energy   TEWEN  =    -13535.12452502
  -Hartree energ DENC   =     -7279.76281931
  -exchange      EXHF   =         0.00000000
  -V(xc)+E(xc)   XCENC  =       869.57020537
  PAW double counting   =     22657.47029574   -23202.15343368
  entropy T*S    EENTRO =        -0.00892522
  eigenvalues    EBANDS =      -611.58712789
  atomic energy  EATOM  =     20152.97065086
  Solvation  Ediel_sol  =         0.00000000
  ---------------------------------------------------
  free energy    TOTEN  =      -205.89624491 eV

  energy without entropy =     -205.88731970  energy(sigma->0) =     -205.89178230


--------------------------------------------------------------------------------------------------------




----------------------------------------- Iteration    1(  19)  ---------------------------------------


    POTLOK:  cpu time    0.0258: real time    0.0260
    SETDIJ:  cpu time    0.0057: real time    0.0057
    EDDIAG:  cpu time    2.5750: real time    2.5951
  RMM-DIIS:  cpu time    6.1652: real time    6.2044
    ORTHCH:  cpu time    0.5652: real time    0.5684
       DOS:  cpu time    0.0076: real time    0.0077
    CHARGE:  cpu time    0.3411: real time    0.3428
    MIXING:  cpu time    0.0009: real time    0.0009
    --------------------------------------------
      LOOP:  cpu time    9.6885: real time    9.7612

 eigenvalue-minimisations  : 27842
 total energy-change (2. order) :-0.1234512E+01  (-0.3651987E+00)
 number of electron     255.0000001 magnetization      15.4551647
 augmentation part       75.7501497 magnetization      12.1302771

 Broyden mixing:
  rms(total) = 0.12829E+01    rms(broyden)= 0.12828E+01
  rms(prec ) = 0.14771E+01
  weight for this iteration     100.00

 eigenvalues of (default mixing * dielectric matrix)
  average eigenvalue GAMMA=   0.5158
  1.5577  0.7192  0.5295  0.3394  0.1677  0.1576  0.1394

 Free energy of the ion-electron system (eV)
  ---------------------------------------------------
  alpha Z        PSCENC =       742.72943424
  Ewald energy   TEWEN  =    -13535.12452502
  -Hartree energ DENC   =     -7281.35378534
  -exchange      EXHF   =         0.00000000
  -V(xc)+E(xc)   XCENC  =       868.20755476
  PAW double counting   =     22914.44502941   -23460.76185548
  entropy T*S    EENTRO =        -0.00956677
  eigenvalues    EBANDS =      -608.23369319
  atomic energy  EATOM  =     20152.97065086
  Solvation  Ediel_sol  =         0.00000000
  ---------------------------------------------------
  free energy    TOTEN  =      -207.13075653 eV

  energy without entropy =     -207.12118976  energy(sigma->0) =     -207.12597314


--------------------------------------------------------------------------------------------------------




----------------------------------------- Iteration    1(  20)  ---------------------------------------


    POTLOK:  cpu time    0.0249: real time    0.0251
    SETDIJ:  cpu time    0.0055: real time    0.0055
    EDDIAG:  cpu time    2.7535: real time    2.7706
  RMM-DIIS:  cpu time    6.8521: real time    6.8944
    ORTHCH:  cpu time    0.6581: real time    0.6619
       DOS:  cpu time    0.0081: real time    0.0081
    CHARGE:  cpu time    0.3908: real time    0.3935
    MIXING:  cpu time    0.0010: real time    0.0010
    --------------------------------------------
      LOOP:  cpu time   10.6960: real time   10.7709

 eigenvalue-minimisations  : 27843
 total energy-change (2. order) :-0.6540777E+01  (-0.4378092E+00)
 number of electron     255.0000001 magnetization      13.9317678
 augmentation part       75.5117683 magnetization      10.9854326

 Broyden mixing:
  rms(total) = 0.11322E+01    rms(broyden)= 0.11321E+01
  rms(prec ) = 0.13407E+01
  weight for this iteration     100.00

 eigenvalues of (default mixing * dielectric matrix)
  average eigenvalue GAMMA=   0.5492
  1.8976  0.8069  0.4643  0.4643  0.3098  0.1684  0.1411  0.1411

 Free energy of the ion-electron system (eV)
  ---------------------------------------------------
  alpha Z        PSCENC =       742.72943424
  Ewald energy   TEWEN  =    -13535.12452502
  -Hartree energ DENC   =     -7281.38532647
  -exchange      EXHF   =         0.00000000
  -V(xc)+E(xc)   XCENC  =       865.42977338
  PAW double counting   =     23362.27729167   -23911.23113182
  entropy T*S    EENTRO =        -0.00763283
  eigenvalues    EBANDS =      -609.33006707
  atomic energy  EATOM  =     20152.97065086
  Solvation  Ediel_sol  =         0.00000000
  ---------------------------------------------------
  free energy    TOTEN  =      -213.67153306 eV

[...]
 -0.003  -0.000  -0.000  -0.000   0.000  -0.002  -0.000  -0.000
 -0.000  -0.000  -0.001  -0.002  -0.000  -0.000  -0.000  -0.001
  0.000  -0.000   0.002  -0.000  -0.003   0.000  -0.000   0.002
 -0.003  -0.000   0.000  -0.000   0.000  -0.003  -0.000   0.000
 -0.000  -0.000  -0.001  -0.003  -0.000  -0.000  -0.000  -0.001
  0.000  -0.000   0.003  -0.000  -0.004   0.000  -0.000   0.002
 pseudopotential strength for first ion, spin component:           2
 -5.282   0.031   0.112   0.640  -0.035  -5.782   0.031   0.113
  0.031  -5.497   0.124   0.048   0.660   0.031  -5.987   0.125
  0.112   0.124  -3.399  -0.219  -0.106   0.113   0.125  -3.886
  0.640   0.048  -0.219  -5.563   0.029   0.649   0.047  -0.220
 -0.035   0.660  -0.106   0.029  -5.269  -0.036   0.670  -0.107
 -5.782   0.031   0.113   0.649  -0.036  -6.236   0.031   0.116
  0.031  -5.987   0.125   0.047   0.670   0.031  -6.430   0.126
  0.113   0.125  -3.886  -0.220  -0.107   0.116   0.126  -4.309
  0.649   0.047  -0.220  -6.052   0.029   0.666   0.047  -0.223
 -0.036   0.670  -0.107   0.029  -5.769  -0.036   0.687  -0.110
 -0.002  -0.001   0.002  -0.002   0.002  -0.002  -0.001  -0.000
 -0.004  -0.002   0.002  -0.003   0.003  -0.003  -0.002  -0.002
 -0.002   0.000  -0.000  -0.000   0.000  -0.001   0.000  -0.000
 -0.000   0.000   0.000  -0.002  -0.000  -0.000   0.000   0.000
  0.000  -0.000   0.001   0.000  -0.001   0.000  -0.000   0.000
 -0.002   0.000   0.000  -0.000   0.000  -0.002   0.000   0.000
 -0.000  -0.000   0.000  -0.003  -0.000  -0.000  -0.000   0.000
 -0.000  -0.000   0.001   0.000  -0.002  -0.000  -0.000   0.000
 total augmentation occupancy for first ion, spin component:           1
  6.886  -0.062  -0.143  -2.665   0.318  -5.442   0.051   0.065   0.935  -0.226  -0.035  -0.016  -0.007   0.079  -0.010   0.000
 -0.062   6.426  -0.216  -0.052  -2.672   0.067  -5.257   0.148   0.020   0.726   0.059  -0.020  -0.007   0.002   0.044   0.002
 -0.143  -0.216   5.948   0.092   0.126   0.063   0.165  -4.214  -0.012  -0.041   0.570  -0.080  -0.000   0.002  -0.060  -0.000
 -2.665  -0.052   0.092   6.757  -0.027   0.745   0.021   0.009  -5.500   0.046   0.046  -0.019   0.041  -0.094  -0.006  -0.011
  0.318  -2.672   0.126  -0.027   6.785  -0.226   0.888  -0.047   0.027  -5.347  -0.072   0.010  -0.011   0.000  -0.012   0.003
 -5.442   0.067   0.063   0.745  -0.226   5.617  -0.061  -0.029   0.507   0.154   0.023   0.011  -0.002  -0.078   0.012   0.002
  0.051  -5.257   0.165   0.021   0.888  -0.061   5.634  -0.134  -0.004   0.567  -0.061   0.018   0.010  -0.004  -0.049  -0.003
  0.065   0.148  -4.214   0.009  -0.047  -0.029  -0.134   3.687  -0.025   0.004  -0.672   0.135   0.000  -0.005   0.068  -0.000
  0.935   0.020  -0.012  -5.500   0.027   0.507  -0.004  -0.025   5.814  -0.049  -0.059   0.020  -0.046   0.085   0.007   0.011
 -0.226   0.726  -0.041   0.046  -5.347   0.154   0.567   0.004  -0.049   5.524   0.060  -0.005   0.015  -0.001   0.002  -0.003
 -0.035   0.059   0.570   0.046  -0.072   0.023  -0.061  -0.672  -0.059   0.060   2.784  -0.518  -0.003   0.005  -0.005   0.001
 -0.016  -0.020  -0.080  -0.019   0.010   0.011   0.018   0.135   0.020  -0.005  -0.518   0.145   0.000  -0.001  -0.001  -0.000
 -0.007  -0.007  -0.000   0.041  -0.011  -0.002   0.010   0.000  -0.046   0.015  -0.003   0.000   0.565  -0.005  -0.004  -0.088
  0.079   0.002   0.002  -0.094   0.000  -0.078  -0.004  -0.005   0.085  -0.001   0.005  -0.001  -0.005   0.454  -0.010   0.001
 -0.010   0.044  -0.060  -0.006  -0.012   0.012  -0.049   0.068   0.007   0.002  -0.005  -0.001  -0.004  -0.010   0.570  -0.000
  0.000   0.002  -0.000  -0.011   0.003   0.002  -0.003  -0.000   0.011  -0.003   0.001  -0.000  -0.088   0.001  -0.000   0.018
 -0.014  -0.000  -0.001   0.014  -0.001   0.013   0.001   0.001  -0.012   0.001  -0.001   0.000   0.001  -0.064   0.001  -0.000
  0.003  -0.011   0.008   0.001   0.001  -0.003   0.011  -0.010  -0.002   0.002   0.001  -0.000  -0.000   0.001  -0.089   0.000
 total augmentation occupancy for first ion, spin component:           2
  0.524   0.045   0.312  -0.158   0.023  -0.235  -0.033  -0.206   0.244  -0.032   0.011  -0.005  -0.002  -0.003  -0.002   0.001
  0.045   0.045   0.184   0.032  -0.209  -0.038   0.158  -0.106  -0.025   0.328   0.002  -0.004   0.002  -0.000  -0.007   0.000
  0.312   0.184   5.129  -0.461  -0.214  -0.199  -0.105  -3.133   0.310   0.133  -0.003   0.067  -0.000   0.007  -0.030   0.000
 -0.158   0.032  -0.461   0.172   0.046   0.284  -0.025   0.292   0.061  -0.040  -0.023  -0.004  -0.005  -0.006   0.002   0.000
  0.023  -0.209  -0.214   0.046   0.491  -0.032   0.285   0.119  -0.033  -0.202  -0.011   0.002  -0.002  -0.002   0.001  -0.000
 -0.235  -0.038  -0.199   0.284  -0.032   0.032   0.030   0.137  -0.303   0.035  -0.004   0.003   0.002   0.002   0.001  -0.000
 -0.033   0.158  -0.105  -0.025   0.285   0.030  -0.301   0.064   0.020  -0.337  -0.001   0.004  -0.002   0.000   0.006  -0.000
 -0.206  -0.106  -3.133   0.292   0.119   0.137   0.064   2.021  -0.213  -0.080  -0.014  -0.032   0.001  -0.004   0.020  -0.000
  0.244  -0.025   0.310   0.061  -0.033  -0.303   0.020  -0.213  -0.227   0.032   0.024   0.001   0.005   0.005  -0.002  -0.000
 -0.032   0.328   0.133  -0.040  -0.202   0.035  -0.337  -0.080   0.032   0.002   0.007   0.001   0.001   0.001  -0.000   0.000
  0.011   0.002  -0.003  -0.023  -0.011  -0.004  -0.001  -0.014   0.024   0.007  -0.116   0.052   0.000  -0.000   0.001  -0.000
 -0.005  -0.004   0.067  -0.004   0.002   0.003   0.004  -0.032   0.001   0.001   0.052  -0.008  -0.000  -0.000  -0.000   0.000
 -0.002   0.002  -0.000  -0.005  -0.002   0.002  -0.002   0.001   0.005   0.001   0.000  -0.000  -0.001  -0.000   0.001   0.004
 -0.003  -0.000   0.007  -0.006  -0.002   0.002   0.000  -0.004   0.005   0.001  -0.000  -0.000  -0.000  -0.000   0.000   0.000
 -0.002  -0.007  -0.030   0.002   0.001   0.001   0.006   0.020  -0.002  -0.000   0.001  -0.000   0.001   0.000   0.000  -0.000
  0.001   0.000   0.000   0.000  -0.000  -0.000  -0.000  -0.000  -0.000   0.000  -0.000   0.000   0.004   0.000  -0.000  -0.001
  0.001   0.000  -0.001  -0.000   0.000  -0.001  -0.000   0.001   0.000  -0.000  -0.000  -0.000   0.000   0.003  -0.000  -0.000
 -0.000   0.000  -0.000   0.000   0.001  -0.000  -0.000  -0.000  -0.000  -0.000  -0.000   0.000  -0.000  -0.000   0.004  -0.000


------------------------ aborting loop because EDIFF is reached ----------------------------------------


    CHARGE:  cpu time    0.3991: real time    0.4018
    FORLOC:  cpu time    0.0030: real time    0.0030
    FORNL :  cpu time    1.7946: real time    1.8023
    STRESS:  cpu time    6.2012: real time    6.2358
    FORCOR:  cpu time    0.0318: real time    0.0320
    FORHAR:  cpu time    0.0059: real time    0.0059
    MIXING:  cpu time    0.0058: real time    0.0059
    OFIELD:  cpu time    0.0001: real time    0.0001

 ---------------------------------------------------------------------------------------------

         DFTD3 V3.0 Rev 1        
 IVDW         = 12
 DF pbe       
 parameters
 VDW_S6       =    1.0000
 VDW_S8       =    0.7875
 VDW_A1       =    0.4289
 VDW_A2       =    4.4407
 k1-k3        =   16.0000    1.3333   -4.0000
 VDW_RADIUS   =   50.2022 A
 VDW_CNRADIUS =   21.1671 A
 Edisp (eV)   -6.31542

 E6    (eV) :    -4.0811
 E8    (eV) :    -2.2344
 % E8        : 35.38
    FORVDW:  cpu time    0.3025: real time    0.3042

  FORCE on cell =-STRESS in cart. coord.  units (eV):
  Direction    XX          YY          ZZ          XY          YZ          ZX
  --------------------------------------------------------------------------------------
  Alpha Z   742.72943   742.72943   742.72943
  Ewald   -1091.07852 -1100.50559-11343.60823    -0.28982   -49.70597   -10.66654
  Hartree  4883.52258  4882.09045 -2538.12294    -0.30989   -38.50701    -8.08251
  E(xc)   -1275.24985 -1275.23413 -1276.06130     0.00134    -0.00801     0.00379
  Local   -8735.73858 -8725.90157  8903.37663     0.70177    88.56256    18.89410
  n-local  -577.09409  -577.65905  -584.27113    -0.04678     0.27364     0.00284
  augment  2022.06464  2022.46964  1982.15869    -0.07940    -0.33335    -0.13404
  Kinetic  4038.54364  4039.12859  4122.19388    -0.05783     0.12500    -0.02703
  Fock        0.00000     0.00000     0.00000     0.00000     0.00000     0.00000
  vdW        -6.59686    -6.59576    -6.65402     0.00003    -0.00206    -0.00036
  -------------------------------------------------------------------------------------
  Total       1.10238     0.52201     1.74101    -0.08057     0.40481    -0.00975
  in kB       4.55882     2.15875     7.19982    -0.33321     1.67404    -0.04032
  external pressure =        4.64 kB  Pullay stress =        0.00 kB


 VOLUME and BASIS-vectors are now :
 -----------------------------------------------------------------------------
  energy-cutoff  :      600.00
  volume of cell :      387.43
      direct lattice vectors                 reciprocal lattice vectors
     5.598821162  0.000014743 -0.006068012     0.178609349  0.102999291  0.000547725
    -2.799990849  4.855545592 -0.024115584     0.000000500  0.205955146  0.000962011
    -0.005315664 -0.066569279 14.251697751     0.000076048  0.000392355  0.070168940

  length of vectors
     5.598824451  5.605073890 14.251854213     0.206180633  0.205957393  0.070170078


 FORCES acting on ions
    electron-ion (+dipol)            ewald-force                    non-local-force                 convergence-correction
 -----------------------------------------------------------------------------------------------
   0.107E+02 -.134E+01 -.311E+01   -.111E+02 0.130E+01 0.311E+01   0.476E+00 0.474E-01 -.236E-01   -.163E-02 0.649E-03 0.199E-01
   0.520E+01 0.110E+02 -.151E+01   -.543E+01 -.114E+02 0.161E+01   0.277E+00 0.388E+00 -.410E-01   -.379E-03 -.432E-03 0.101E-02
   -.588E+01 0.972E+01 0.375E+01   0.611E+01 -.101E+02 -.367E+01   -.254E+00 0.368E+00 -.148E-01   -.155E-03 -.114E-03 -.212E-01
   -.348E+00 0.651E+01 0.413E+02   0.350E+00 -.677E+01 -.417E+02   -.809E-03 0.281E+00 0.394E+00   0.149E-03 -.124E-02 0.195E-01
   0.571E+01 -.378E+01 0.424E+02   -.593E+01 0.388E+01 -.427E+02   0.190E+00 -.132E+00 0.318E+00   -.215E-03 0.112E-03 0.194E-02
   0.523E+01 -.926E+01 0.290E+01   -.545E+01 0.973E+01 -.278E+01   0.218E+00 -.458E+00 -.297E-01   0.266E-03 -.191E-04 -.210E-01
   -.110E+02 -.759E+00 -.193E+01   0.114E+02 0.725E+00 0.189E+01   -.473E+00 0.573E-01 0.182E-01   0.168E-02 0.498E-03 0.201E-01
   -.446E+01 0.365E+01 -.460E+02   0.467E+01 -.380E+01 0.465E+02   -.291E+00 0.177E+00 -.277E+00   0.306E-03 -.161E-03 -.339E-04
   0.516E+01 0.280E+01 -.382E+02   -.537E+01 -.295E+01 0.386E+02   0.303E+00 0.167E+00 -.240E+00   0.130E-03 -.453E-03 -.204E-01
   0.413E+00 -.520E+01 -.467E+02   -.417E+00 0.551E+01 0.470E+02   -.112E-02 -.357E+00 -.304E+00   -.112E-03 0.599E-03 0.202E-01
   -.568E+01 -.985E+01 -.109E+01   0.591E+01 0.103E+02 0.114E+01   -.199E+00 -.444E+00 0.177E-01   0.227E-03 0.515E-03 0.953E-03
   -.524E+01 -.234E+01 0.478E+02   0.544E+01 0.243E+01 -.480E+02   -.188E+00 -.127E+00 0.325E+00   -.303E-03 0.134E-03 -.217E-01
   -.257E-01 0.188E+02 0.340E+03   0.828E-02 -.226E+02 -.362E+03   0.193E-02 0.376E+01 0.220E+02   -.166E-03 0.160E-02 0.482E-02
   0.163E+01 0.865E+01 -.339E+03   -.205E+01 -.105E+02 0.361E+03   0.451E+00 0.185E+01 -.220E+02   0.220E-02 0.284E-02 0.229E-01
   0.344E+01 -.636E+01 0.342E+03   -.630E+01 0.796E+01 -.364E+03   0.338E+01 -.161E+01 0.219E+02   -.889E-03 0.451E-03 0.158E-01
   -.101E+02 -.328E+01 -.343E+03   0.121E+02 0.246E+01 0.366E+03   -.195E+01 0.114E+01 -.224E+02   0.677E-02 -.380E-02 -.175E-01
   0.140E+01 0.117E+02 0.344E+03   -.194E+01 -.146E+02 -.366E+03   0.575E+00 0.319E+01 0.225E+02   0.480E-03 0.166E-02 -.225E-01
   0.989E+01 -.399E+01 -.339E+03   -.119E+02 0.303E+01 0.362E+03   0.197E+01 0.129E+01 -.223E+02   0.523E-03 -.259E-03 -.551E-02
   0.144E+02 -.718E+01 0.337E+03   -.171E+02 0.914E+01 -.359E+03   0.274E+01 -.197E+01 0.218E+02   -.249E-02 -.289E-02 0.321E-02
   0.173E+00 -.113E+02 -.344E+03   -.161E+00 0.134E+02 0.369E+03   -.191E-01 -.212E+01 -.256E+02   0.173E-03 -.164E-02 0.209E-01
   -.155E+00 0.120E+02 0.340E+03   0.571E+00 -.153E+02 -.362E+03   -.437E+00 0.355E+01 0.219E+02   0.603E-02 0.270E-02 0.191E-01
   -.498E+01 -.102E+02 -.340E+03   0.360E+01 0.119E+02 0.362E+03   0.188E+01 -.170E+01 -.218E+02   -.345E-03 0.718E-02 -.176E-01
   0.395E+01 -.554E+01 0.340E+03   -.706E+01 0.652E+01 -.362E+03   0.355E+01 -.936E+00 0.218E+02   0.117E-02 -.100E-02 -.229E-01
   -.542E+01 0.233E+01 -.341E+03   0.419E+01 -.307E+01 0.367E+03   0.176E+01 0.770E+00 -.256E+02   0.134E-02 0.152E-02 -.537E-02
   0.846E+00 0.263E+01 0.343E+03   -.878E+00 -.342E+01 -.369E+03   0.357E-01 0.828E+00 0.261E+02   0.148E-03 0.489E-02 0.426E-02
   -.239E+01 0.812E+01 -.339E+03   0.290E+01 -.100E+02 0.361E+03   -.542E+00 0.190E+01 -.219E+02   -.213E-02 0.268E-02 0.235E-01
   -.328E+01 -.573E+01 0.337E+03   0.621E+01 0.686E+01 -.359E+03   -.338E+01 -.109E+01 0.219E+02   0.806E-03 -.668E-02 0.190E-01
   0.889E+01 0.231E+01 -.342E+03   -.107E+02 -.163E+01 0.364E+03   0.190E+01 -.939E+00 -.224E+02   -.623E-02 -.340E-02 -.175E-01
   -.562E+00 0.929E+01 0.345E+03   0.105E+01 -.946E+01 -.372E+03   -.520E+00 -.150E+00 0.261E+02   -.508E-03 0.303E-04 -.222E-01
   -.102E+02 0.181E+01 -.338E+03   0.121E+02 -.110E+01 0.360E+03   -.197E+01 -.964E+00 -.223E+02   -.628E-03 -.178E-02 -.481E-02
   -.137E+02 -.667E+01 0.336E+03   0.163E+02 0.857E+01 -.358E+03   -.264E+01 -.189E+01 0.221E+02   0.247E-02 -.271E-02 0.324E-02
   -.895E+00 -.126E+02 -.347E+03   0.915E+00 0.149E+02 0.370E+03   -.203E-01 -.230E+01 -.227E+02   -.922E-04 -.422E-02 0.225E-01
   0.976E+00 0.899E+01 0.341E+03   -.153E+01 -.917E+01 -.368E+03   0.582E+00 -.142E+00 0.261E+02   -.675E-02 0.376E-02 0.188E-01
   0.437E+01 0.153E+01 -.344E+03   -.315E+01 -.230E+01 0.369E+03   -.175E+01 0.800E+00 -.256E+02   0.723E-03 -.316E-03 -.143E-01
   -.280E+01 -.675E+01 0.345E+03   0.589E+01 0.835E+01 -.367E+03   -.359E+01 -.160E+01 0.214E+02   -.141E-02 -.162E-02 -.225E-01
   0.452E+01 -.976E+01 -.335E+03   -.302E+01 0.114E+02 0.357E+03   -.202E+01 -.170E+01 -.220E+02   -.113E-02 0.735E-03 -.492E-02
   0.195E+00 -.335E+00 0.193E+00   -.127E+00 0.154E+00 -.626E-01   -.758E-01 0.116E+00 -.759E-01   0.145E-03 -.263E-04 0.380E-02
   -.407E-02 0.470E+00 0.278E+00   -.835E-01 -.338E+00 -.139E+00   -.157E-01 -.210E+00 -.775E-01   -.834E-05 -.210E-04 -.357E-02
   -.604E-01 0.197E+00 0.168E+01   0.109E+00 -.600E-01 -.148E+01   0.608E-01 -.137E+00 -.180E+00   -.386E-04 -.108E-03 -.119E-03
 -----------------------------------------------------------------------------------------------
   0.184E-01 0.334E+00 0.104E+01   -.244E-13 -.658E-13 0.178E-13   0.210E-01 -.300E+00 -.105E+01   0.134E-03 -.341E-03 -.228E-03
 
 
 POSITION                                       TOTAL-FORCE (eV/Angst)
 -----------------------------------------------------------------------------------
      0.04085      1.67101      2.34418         0.019644      0.009113      0.000370
      0.02049     -0.01325      7.10129         0.040248      0.010245      0.060598
      1.44939      0.77271     11.85160        -0.023855      0.013479      0.049019
     -1.35791      4.09737      2.27435        -0.000209      0.013296      0.007554
     -1.37703      2.41750      7.03738        -0.030979     -0.028006      0.048877
      0.04612      3.20578     11.84048        -0.005203      0.019594      0.073848
      2.84377      1.67093      2.33846        -0.014165      0.023256     -0.002751
      2.82462     -0.01025      7.14783        -0.083400      0.024326      0.156143
      4.24552      0.77631     11.89429         0.095793      0.022597      0.128905
      1.44247      4.09884      2.37800        -0.006073     -0.046665      0.059772
      1.42357      2.41889      7.08458         0.026151     -0.005879      0.060801
      2.84817      3.20577     11.78402         0.008351     -0.031565      0.061838
      1.44102      0.90058      1.35619        -0.016661      0.036797     -0.018979
      0.06901      0.07016      3.31147         0.025325     -0.002919      0.046128
      0.03117      1.57812      6.10893         0.513296     -0.001949     -0.105890
      1.39830      0.79702      8.07427         0.038914      0.315826      0.143772
      0.02732     -0.00114     10.88173         0.034446      0.249999     -0.095903
      0.07286      1.58345     12.82739        -0.029478      0.322944      0.146748
      0.09581      3.27367      1.36596        -0.021390     -0.009296     -0.083082
     -1.35650      2.48837      3.25884        -0.007917     -0.028928      0.027697
     -1.35758      4.06702      6.10536        -0.015626      0.246002     -0.106393
     -0.00659      3.20252      8.04586         0.506174     -0.002730      0.046961
     -1.34237      2.34746     10.88315         0.442285      0.043496     -0.168034
     -1.38083      4.01529     12.75972         0.524692      0.036230      0.019666
      4.24171      0.83244      1.40924         0.002337      0.040207     -0.101868
      2.81878      0.07044      3.30628        -0.032080      0.002396      0.051411
      2.81106      1.55911      6.12705        -0.439680      0.027660     -0.161006
      4.24393      0.83817      8.06616         0.055639     -0.263939     -0.024160
      2.86415     -0.01174     10.93435        -0.029448     -0.319169     -0.196794
      2.82855      1.62452     12.81820        -0.067296     -0.256724     -0.018946
      2.78524      3.27355      1.36399         0.021985      0.010466     -0.082372
      1.44403      2.46069      3.32900        -0.001349     -0.029232      0.083046
      1.40231      4.05861      6.15712         0.021079     -0.316456     -0.192087
      2.85333      3.22843      8.00200        -0.530139      0.036067      0.015957
      1.43706      2.36593     10.85869        -0.503684     -0.001985     -0.113942
      1.47944      3.99098     12.79301        -0.513115     -0.013373      0.047189
      1.45854      0.77983      4.72093        -0.009176     -0.065478      0.058330
      0.04016      1.67945      9.46792        -0.103347     -0.078388      0.058752
      1.41974      2.45743     14.21937         0.107910     -0.001315      0.018824
 -----------------------------------------------------------------------------------
    total drift:                                0.039544      0.033349     -0.016682


--------------------------------------------------------------------------------------------------------



  FREE ENERGIE OF THE ION-ELECTRON SYSTEM (eV)
  ---------------------------------------------------
  free  energy   TOTEN  =      -229.11326874 eV

  energy  without entropy=     -229.11326874  energy(sigma->0) =     -229.11326874
 


--------------------------------------------------------------------------------------------------------


    POTLOK:  cpu time    0.0751: real time    0.0754


--------------------------------------------------------------------------------------------------------


 stress matrix after NEB project (eV)
      1.10238     -0.08057     -0.00975
     -0.08057      0.52201      0.40481
     -0.00975      0.40481      1.74101
  FORCES: max atom, RMS     0.531604    0.280366
  FORCE total and by dimension    1.750883    0.530139
  Stress total and by dimension    2.204489    1.741010


--------------------------------------------------------------------------------------------------------


    WAVPRE:  cpu time    0.0054: real time    0.0056
 FEWALD executed in parallel
    FEWALD:  cpu time    0.0008: real time    0.0008
    GENKIN:  cpu time    0.0185: real time    0.0186

 real space projection operators:
  total allocation   :       7404.66 KBytes
  max/ min on nodes  :       1035.56        818.11

    ORTHCH:  cpu time    1.2850: real time    1.2930
     LOOP+:  cpu time  554.1964: real time  558.6970