 vasp.5.4.1 05Feb16 (build Apr 23 2022 14:15:44) complex                        
  
 executed on           IFC91_ompi date 2024.10.28  01:01:11
 running on   48 total cores
 distrk:  each k-point on   48 cores,    1 groups
 distr:  one band on NCORES_PER_BAND=   8 cores,    6 groups


--------------------------------------------------------------------------------------------------------


 INCAR:
 POTCAR:    PAW_PBE Co 02Aug2007                  
 POTCAR:    PAW_PBE O 08Apr2002                   
 POTCAR:    PAW_PBE Li 17Jan2003                  
 POTCAR:    PAW_PBE Co 02Aug2007                  
   VRHFIN =Co: d8 s1                                                            
   LEXCH  = PE                                                                  
   EATOM  =   813.3670 eV,   59.7808 Ry                                         
                                                                                
   TITEL  = PAW_PBE Co 02Aug2007                                                
   LULTRA =        F    use ultrasoft PP ?                                      
   IUNSCR =        1    unscreen: 0-lin 1-nonlin 2-no                           
   RPACOR =    2.000    partial core radius                                     
   POMASS =   58.933; ZVAL   =    9.000    mass and valenz                      
   RCORE  =    2.300    outmost cutoff radius                                   
   RWIGS  =    2.460; RWIGS  =    1.302    wigner-seitz radius (au A)           
   ENMAX  =  267.968; ENMIN  =  200.976 eV                                      
   RCLOC  =    1.203    cutoff for local pot                                    
   LCOR   =        T    correct aug charges                                     
   LPAW   =        T    paw PP                                                  
   EAUG   =  477.818                                                            
   DEXC   =    0.000                                                            
   RMAX   =    2.360    core radius for proj-oper                               
   RAUG   =    1.300    factor for augmentation sphere                          
   RDEP   =    2.393    radius for radial grids                                 
   RDEPT  =    1.864    core radius for aug-charge                              
                                                                                
   Atomic configuration                                                         
    9 entries                                                                   
     n  l   j            E        occ.                                          
     1  0  0.50     -7587.6674   2.0000                                         
     2  0  0.50      -893.6084   2.0000                                         
     2  1  1.50      -764.5805   6.0000                                         
     3  0  0.50       -97.5973   2.0000                                         
     3  1  1.50       -60.9648   6.0000                                         
     3  2  2.50        -4.2382   8.0000                                         
     4  0  0.50        -4.3746   1.0000                                         
     4  1  1.50        -4.0817   0.0000                                         
     4  3  2.50        -1.3606   0.0000                                         
   Description                                                                  
     l       E           TYP  RCUT    TYP  RCUT                                 
     2     -4.2382362     23  2.300                                             
     2     -5.5988188     23  2.300                                             
     0     -4.3745797     23  2.300                                             
     0      5.7660125     23  2.300                                             
     1     -2.7211652     23  2.300                                             
     1     16.9860234     23  2.300                                             
  local pseudopotential read in
  partial core-charges read in
  partial kinetic energy density read in
  atomic valenz-charges read in
  non local Contribution for L=           2  read in
    real space projection operators read in
  non local Contribution for L=           2  read in
    real space projection operators read in
  non local Contribution for L=           0  read in
    real space projection operators read in
  non local Contribution for L=           0  read in
    real space projection operators read in
  non local Contribution for L=           1  read in
    real space projection operators read in
  non local Contribution for L=           1  read in
    real space projection operators read in
    PAW grid and wavefunctions read in
 
   number of l-projection  operators is LMAX  =           6
   number of lm-projection operators is LMMAX =          18
 
 POTCAR:    PAW_PBE O 08Apr2002                   
   VRHFIN =O: s2p4                                                              
   LEXCH  = PE                                                                  
   EATOM  =   432.3788 eV,   31.7789 Ry                                         
                                                                                
   TITEL  = PAW_PBE O 08Apr2002                                                 
   LULTRA =        F    use ultrasoft PP ?                                      
   IUNSCR =        1    unscreen: 0-lin 1-nonlin 2-no                           
   RPACOR =    1.200    partial core radius                                     
   POMASS =   16.000; ZVAL   =    6.000    mass and valenz                      
   RCORE  =    1.520    outmost cutoff radius                                   
   RWIGS  =    1.550; RWIGS  =    0.820    wigner-seitz radius (au A)           
   ENMAX  =  400.000; ENMIN  =  300.000 eV                                      
   ICORE  =        2    local potential                                         
   LCOR   =        T    correct aug charges                                     
   LPAW   =        T    paw PP                                                  
   EAUG   =  605.392                                                            
   DEXC   =    0.000                                                            
   RMAX   =    1.553    core radius for proj-oper                               
   RAUG   =    1.300    factor for augmentation sphere                          
   RDEP   =    1.550    radius for radial grids                                 
   RDEPT  =    1.329    core radius for aug-charge                              
                                                                                
   Atomic configuration                                                         
    4 entries                                                                   
     n  l   j            E        occ.                                          
     1  0  0.50      -514.6923   2.0000                                         
     2  0  0.50       -23.9615   2.0000                                         
     2  1  0.50        -9.0305   4.0000                                         
     3  2  1.50        -9.5241   0.0000                                         
   Description                                                                  
     l       E           TYP  RCUT    TYP  RCUT                                 
     0    -23.9615318     23  1.200                                             
     0     -9.5240782     23  1.200                                             
     1     -9.0304911     23  1.520                                             
     1      8.1634956     23  1.520                                             
     2     -9.5240782      7  1.500                                             
  local pseudopotential read in
  partial core-charges read in
  partial kinetic energy density read in
  kinetic energy density of atom read in
  atomic valenz-charges read in
  non local Contribution for L=           0  read in
    real space projection operators read in
  non local Contribution for L=           0  read in
    real space projection operators read in
  non local Contribution for L=           1  read in
    real space projection operators read in
  non local Contribution for L=           1  read in
    real space projection operators read in
    PAW grid and wavefunctions read in
 
   number of l-projection  operators is LMAX  =           4
   number of lm-projection operators is LMMAX =           8
 
 POTCAR:    PAW_PBE Li 17Jan2003                  
   VRHFIN =Li: s1p0                                                             
   LEXCH  = PE                                                                  
   EATOM  =     5.3001 eV,    0.3895 Ry                                         
                                                                                
   TITEL  = PAW_PBE Li 17Jan2003                                                
   LULTRA =        F    use ultrasoft PP ?                                      
   IUNSCR =        1    unscreen: 0-lin 1-nonlin 2-no                           
   RPACOR =    1.500    partial core radius                                     
   POMASS =    7.010; ZVAL   =    1.000    mass and valenz                      
   RCORE  =    2.050    outmost cutoff radius                                   
   RWIGS  =    2.600; RWIGS  =    1.376    wigner-seitz radius (au A)           
   ENMAX  =  140.000; ENMIN  =  100.000 eV                                      
   ICORE  =        2    local potential                                         
   LCOR   =        T    correct aug charges                                     
   LPAW   =        T    paw PP                                                  
   EAUG   =  331.638                                                            
   DEXC   =    0.000                                                            
   RMAX   =    2.098    core radius for proj-oper                               
   RAUG   =    1.300    factor for augmentation sphere                          
   RDEP   =    2.094    radius for radial grids                                 
   RDEPT  =    1.810    core radius for aug-charge                              
                                                                                
   Atomic configuration                                                         
    4 entries                                                                   
     n  l   j            E        occ.                                          
     1  0  0.50       -51.8549   2.0000                                         
     2  0  0.50        -2.8742   1.0000                                         
     2  1  0.50        -1.3606   0.0000                                         
     3  2  1.50        -1.3606   0.0000                                         
   Description                                                                  
     l       E           TYP  RCUT    TYP  RCUT                                 
     0     -2.8742052     23  2.050                                             
     0     27.2116520     23  2.050                                             
     1     -1.3605826     23  2.050                                             
     2     -1.3605826     23  2.050                                             
  local pseudopotential read in
  partial core-charges read in
  partial kinetic energy density read in
  atomic valenz-charges read in
  non local Contribution for L=           0  read in
    real space projection operators read in
  non local Contribution for L=           0  read in
    real space projection operators read in
  non local Contribution for L=           1  read in
    real space projection operators read in
    PAW grid and wavefunctions read in
 
   number of l-projection  operators is LMAX  =           3
   number of lm-projection operators is LMMAX =           5
 
 Optimization of the real space projectors (new method)

 maximal supplied QI-value         = 16.25
 optimisation between [QCUT,QGAM] = [ 12.51, 25.03] = [ 43.85,175.40] Ry 
 Optimized for a Real-space Cutoff    1.31 Angstroem

   l    n(q)    QCUT    max X(q) W(low)/X(q) W(high)/X(q)  e(spline) 
   2      9    12.514    65.824    0.30E-03    0.46E-03    0.43E-06
   2      9    12.514    61.429    0.31E-03    0.46E-03    0.44E-06
   0     10    12.514    56.174    0.90E-04    0.33E-03    0.30E-06
   0     10    12.514    31.263    0.81E-04    0.30E-03    0.28E-06
   1      9    12.514    19.828    0.38E-03    0.65E-04    0.24E-06
   1      9    12.514    15.139    0.32E-03    0.60E-04    0.20E-06
 Optimization of the real space projectors (new method)

 maximal supplied QI-value         = 24.76
 optimisation between [QCUT,QGAM] = [ 12.38, 25.00] = [ 42.90,175.06] Ry 
 Optimized for a Real-space Cutoff    1.13 Angstroem

   l    n(q)    QCUT    max X(q) W(low)/X(q) W(high)/X(q)  e(spline) 
   0      8    12.378    20.381    0.16E-03    0.54E-05    0.27E-06
   0      8    12.378    15.268    0.17E-03    0.61E-05    0.29E-06
   1      8    12.378     5.964    0.38E-03    0.23E-03    0.28E-06
   1      8    12.378     5.382    0.33E-03    0.20E-03    0.25E-06
 Optimization of the real space projectors (new method)

 maximal supplied QI-value         = 18.33
 optimisation between [QCUT,QGAM] = [ 12.46, 24.93] = [ 43.51,174.03] Ry 
 Optimized for a Real-space Cutoff    1.13 Angstroem

   l    n(q)    QCUT    max X(q) W(low)/X(q) W(high)/X(q)  e(spline) 
   0      8    12.465    33.825    0.12E-03    0.29E-03    0.99E-07
   0      8    12.465     8.944    0.86E-04    0.22E-03    0.72E-07
   1      8    12.465     4.214    0.27E-03    0.11E-03    0.82E-07
  PAW_PBE Co 02Aug2007                  :
 energy of atom  1       EATOM= -813.3670
 kinetic energy error for atom=    0.0018 (will be added to EATOM!!)
  PAW_PBE O 08Apr2002                   :
 energy of atom  2       EATOM= -432.3788
 kinetic energy error for atom=    0.0168 (will be added to EATOM!!)
  PAW_PBE Li 17Jan2003                  :
 energy of atom  3       EATOM=   -5.3001
 kinetic energy error for atom=    0.0000 (will be added to EATOM!!)
 
 
 POSCAR: Co  O Li                                
  positions in cartesian coordinates
  No initial velocities read in
 exchange correlation table for  LEXCH =        8
   RHO(1)=    0.500       N(1)  =     2000
   RHO(2)=  100.500       N(2)  =     4000

 VTST: version 3.1, (03/28/14)

 CHAIN: initializing optimizer
 
 OPT: Using VASP Conjugate-Gradient optimizer
 CHAIN: Read ICHAIN            0
 
 POSCAR: Co  O Li                                
  positions in cartesian coordinates
  No initial velocities read in
 


--------------------------------------------------------------------------------------------------------


 ion  position               nearest neighbor table
   1  0.169  0.321  0.162-  13 1.88  19 1.88  25 1.89  32 1.91  20 1.92  14 1.93   7 2.80  10 2.80
                             7 2.80  10 2.81   4 2.81   4 2.81  38 2.87
   2  0.006  0.990  0.501-  16 1.86  34 1.87  28 1.88  21 1.88  33 1.89  15 1.89   8 2.79   8 2.80
                            11 2.80  11 2.80   5 2.80   5 2.81  39 2.85  38 2.87  37 2.90
   3  0.346  0.192  0.842-  30 1.85  18 1.86  29 1.87  17 1.88  24 1.88  35 1.90   9 2.79   9 2.80
                            12 2.80  12 2.80   6 2.81   6 2.81  39 2.87
   4  0.169  0.821  0.161-  19 1.86  13 1.86  31 1.87  26 1.90  14 1.91  20 1.91  10 2.80   7 2.80
                            10 2.80   7 2.81   1 2.81   1 2.81  37 2.90
   5  0.006  0.491  0.501-  22 1.86  34 1.87  28 1.88  21 1.88  27 1.89  15 1.89  11 2.80  11 2.80
                             8 2.80   2 2.80   8 2.80   2 2.81  39 2.84  38 2.87  37 2.90
   6  0.345  0.691  0.842-  24 1.86  36 1.87  18 1.87  29 1.88  35 1.89  23 1.89  12 2.79   9 2.80
                            12 2.80   9 2.80   3 2.81   3 2.81  39 3.01
   7  0.668  0.320  0.157-  13 1.85  25 1.85  31 1.87  32 1.89  20 1.90  26 1.90   1 2.80   4 2.80
                             1 2.80   4 2.81  10 2.81  10 2.81  37 2.91  38 2.95
   8  0.505  0.990  0.501-  16 1.90  22 1.90  21 1.91  28 1.91  33 1.92  27 1.92   2 2.79   5 2.80
                             2 2.80   5 2.80  11 2.81  11 2.81  38 2.83
   9  0.845  0.192  0.842-  18 1.87  36 1.87  30 1.87  29 1.88  23 1.89  17 1.89   3 2.79   3 2.80
                             6 2.80   6 2.80  12 2.81  12 2.81  39 3.00
  10  0.668  0.820  0.157-  19 1.85  25 1.85  31 1.87  32 1.89  14 1.90  26 1.90   4 2.80   4 2.80
                             1 2.80   1 2.81   7 2.81   7 2.81  37 2.92  38 2.94
  11  0.505  0.490  0.497-  34 1.88  22 1.88  16 1.88  15 1.90  27 1.91  33 1.92  39 2.76  37 2.78
                             5 2.80   5 2.80   2 2.80   2 2.80   8 2.81   8 2.81
  12  0.845  0.691  0.838-  24 1.86  30 1.87  36 1.87  35 1.89  23 1.89  17 1.90   6 2.79   3 2.80
                             6 2.80   3 2.80   9 2.81   9 2.81
  13  0.334  0.151  0.094-   7 1.85   4 1.86   1 1.88
  14  0.992  0.980  0.233-  10 1.90   4 1.91   1 1.93  37 2.12  38 2.13
  15  0.166  0.320  0.430-   5 1.89   2 1.89  11 1.90  38 2.11
  16  0.336  0.161  0.569-   2 1.86  11 1.88   8 1.90  39 2.04
  17  0.018  0.031  0.771-   3 1.88   9 1.89  12 1.90  39 2.11
  18  0.179  0.358  0.908-   3 1.86   6 1.87   9 1.87
  19  0.333  0.655  0.094-  10 1.85   4 1.86   1 1.88
  20  0.992  0.485  0.233-   7 1.90   4 1.91   1 1.92  37 2.11  38 2.14
  21  0.168  0.821  0.431-   2 1.88   5 1.88   8 1.91  37 2.18
  22  0.336  0.651  0.569-   5 1.86  11 1.88   8 1.90  39 2.03
  23  0.015  0.522  0.770-   6 1.89   9 1.89  12 1.89  39 2.30
  24  0.172  0.854  0.907-  12 1.86   6 1.86   3 1.88
  25  0.836  0.154  0.093-   7 1.85  10 1.85   1 1.89
  26  0.506  0.990  0.229-  10 1.90   7 1.90   4 1.90  38 2.16
  27  0.681  0.325  0.428-   5 1.89  11 1.91   8 1.92  38 2.05  37 2.07
  28  0.843  0.159  0.570-   2 1.88   5 1.88   8 1.91  39 2.18
  29  0.511  0.026  0.774-   3 1.87   6 1.88   9 1.88
  30  0.677  0.362  0.907-   3 1.85  12 1.87   9 1.87
  31  0.840  0.656  0.091-   4 1.87  10 1.87   7 1.87
  32  0.510  0.492  0.229-   7 1.89  10 1.89   1 1.91  37 2.09
  33  0.681  0.829  0.428-   2 1.89  11 1.92   8 1.92  38 2.06  37 2.07
  34  0.835  0.655  0.567-   5 1.87   2 1.87  11 1.88
  35  0.508  0.523  0.771-   6 1.89  12 1.89   3 1.90  39 2.12
  36  0.679  0.856  0.907-   6 1.87   9 1.87  12 1.87
  37  0.824  0.649  0.331-  33 2.07  27 2.07  32 2.09  20 2.11  14 2.12  21 2.18  11 2.78  38 2.81
                            38 2.81   5 2.90   4 2.90   2 2.90   7 2.91  10 2.92
  38  0.834  0.153  0.333-  27 2.05  33 2.06  15 2.11  14 2.13  20 2.14  26 2.16  37 2.81  37 2.81
                             8 2.83   2 2.87   5 2.87   1 2.87  10 2.94   7 2.95
  39  0.198  0.339  0.665-  22 2.03  16 2.04  17 2.11  35 2.12  28 2.18  23 2.30  11 2.76   5 2.84
                             2 2.85   3 2.87   9 3.00   6 3.01
 
  LATTYP: Found a triclinic cell.
 ALAT       =     5.5933250315
 B/A-ratio  =     1.7360522537
 C/A-ratio  =     3.2097035524
 COS(alpha) =     0.0010828226
 COS(beta)  =     0.3155232040
 COS(gamma) =     0.8655204448
  
  Lattice vectors:
  
 A1 = (  -5.5933016345,   0.0061784516,  -0.0149519331)
 A2 = (  -8.3990445949,   4.8729126454,  -0.0280401288)
 A3 = (  -5.6380103468,  -9.7594540138, -13.9740138008)


Analysis of symmetry for initial positions (statically):
=====================================================================
 Subroutine PRICEL returns:
 Original cell was already a primitive cell.
 

 Routine SETGRP: Setting up the symmetry group for a 
 triclinic supercell.


 Subroutine GETGRP returns: Found  1 space group operations
 (whereof  1 operations were pure point group operations)
 out of a pool of  2 trial point group operations.


The static configuration has the point symmetry C_1 .


Analysis of symmetry for dynamics (positions and initial velocities):
=====================================================================
 Subroutine PRICEL returns:
 Original cell was already a primitive cell.
 

 Routine SETGRP: Setting up the symmetry group for a 
 triclinic supercell.


 Subroutine GETGRP returns: Found  1 space group operations
 (whereof  1 operations were pure point group operations)
 out of a pool of  2 trial point group operations.


The dynamic configuration has the point symmetry C_1 .


Analysis of structural, dynamic, and magnetic symmetry:
=====================================================================
 Subroutine PRICEL returns:
 Original cell was already a primitive cell.
 

 Routine SETGRP: Setting up the symmetry group for a 
 triclinic supercell.


 Subroutine GETGRP returns: Found  1 space group operations
 (whereof  1 operations were pure point group operations)
 out of a pool of  2 trial point group operations.


The magnetic configuration has the point symmetry C_1 .


 Subroutine INISYM returns: Found  1 space group operations
 (whereof  1 operations are pure point group operations),
 and found     1 'primitive' translations

 
 
 KPOINTS: KPOINTS created by Atomic Simulation Env

Automatic generation of k-mesh.
Space group operators:
 irot       det(A)        alpha          n_x          n_y          n_z        tau_x        tau_y        tau_z
    1     1.000000     0.000001     1.000000     0.000000     0.000000     0.000000     0.000000     0.000000
 
 Subroutine IBZKPT returns following result:
 ===========================================
 
 Found     40 irreducible k-points:
 
 Following reciprocal coordinates:
            Coordinates               Weight
  0.000000  0.000000  0.000000      1.000000
  0.166667 -0.000000  0.000000      2.000000
  0.333333 -0.000000  0.000000      2.000000
  0.500000 -0.000000  0.000000      1.000000
  0.000000  0.166667  0.000000      2.000000
  0.166667  0.166667  0.000000      2.000000
  0.333333  0.166667 -0.000000      2.000000
  0.500000  0.166667  0.000000      2.000000
 -0.333333  0.166667  0.000000      2.000000
 -0.166667  0.166667 -0.000000      2.000000
  0.000000  0.333333  0.000000      2.000000
  0.166667  0.333333  0.000000      2.000000
  0.333333  0.333333  0.000000      2.000000
  0.500000  0.333333  0.000000      2.000000
 -0.333333  0.333333 -0.000000      2.000000
 -0.166667  0.333333 -0.000000      2.000000
  0.000000  0.500000 -0.000000      1.000000
  0.166667  0.500000  0.000000      2.000000
  0.333333  0.500000 -0.000000      2.000000
  0.500000  0.500000  0.000000      1.000000
  0.000000 -0.000000  0.500000      1.000000
  0.166667 -0.000000  0.500000      2.000000
  0.333333 -0.000000  0.500000      2.000000
  0.500000 -0.000000  0.500000      1.000000
  0.000000  0.166667  0.500000      2.000000
  0.166667  0.166667  0.500000      2.000000
  0.333333  0.166667  0.500000      2.000000
  0.500000  0.166667  0.500000      2.000000
 -0.333333  0.166667  0.500000      2.000000
 -0.166667  0.166667  0.500000      2.000000
 -0.000000  0.333333  0.500000      2.000000
  0.166667  0.333333  0.500000      2.000000
  0.333333  0.333333  0.500000      2.000000
  0.500000  0.333333  0.500000      2.000000
 -0.333333  0.333333  0.500000      2.000000
 -0.166667  0.333333  0.500000      2.000000
  0.000000  0.500000  0.500000      1.000000
  0.166667  0.500000  0.500000      2.000000
  0.333333  0.500000  0.500000      2.000000
  0.500000  0.500000  0.500000      1.000000
 
 Following cartesian coordinates:
            Coordinates               Weight
  0.000000  0.000000  0.000000      1.000000
  0.029817  0.017189 -0.000181      2.000000
  0.059634  0.034379 -0.000363      2.000000
  0.089451  0.051568 -0.000544      1.000000
  0.000038  0.034268 -0.000094      2.000000
  0.029855  0.051457 -0.000276      2.000000
  0.059672  0.068647 -0.000457      2.000000
  0.089489  0.085836 -0.000638      2.000000
 -0.059596 -0.000111  0.000269      2.000000
 -0.029779  0.017078  0.000087      2.000000
  0.000076  0.068536 -0.000188      2.000000
  0.029893  0.085725 -0.000370      2.000000
  0.059710  0.102915 -0.000551      2.000000
  0.089527  0.120104 -0.000733      2.000000
 -0.059558  0.034157  0.000174      2.000000
 -0.029741  0.051346 -0.000007      2.000000
  0.000114  0.102803 -0.000283      1.000000
  0.029931  0.119993 -0.000464      2.000000
  0.059748  0.137182 -0.000645      2.000000
  0.089565  0.154372 -0.000827      1.000000
 -0.000096  0.000041  0.035791      1.000000
  0.029721  0.017231  0.035609      2.000000
  0.059538  0.034420  0.035428      2.000000
  0.089355  0.051609  0.035246      1.000000
 -0.000058  0.034309  0.035696      2.000000
  0.029759  0.051498  0.035515      2.000000
  0.059577  0.068688  0.035334      2.000000
  0.089394  0.085877  0.035152      2.000000
 -0.059692 -0.000070  0.036059      2.000000
 -0.029875  0.017119  0.035878      2.000000
 -0.000019  0.068577  0.035602      2.000000
  0.029798  0.085766  0.035421      2.000000
  0.059615  0.102956  0.035239      2.000000
  0.089432  0.120145  0.035058      2.000000
 -0.059653  0.034198  0.035965      2.000000
 -0.029836  0.051387  0.035784      2.000000
  0.000019  0.102845  0.035508      1.000000
  0.029836  0.120034  0.035326      2.000000
  0.059653  0.137223  0.035145      2.000000
  0.089470  0.154413  0.034964      1.000000
 


--------------------------------------------------------------------------------------------------------




 Dimension of arrays:
   k-points           NKPTS =     40   k-points in BZ     NKDIM =     40   number of bands    NBANDS=    174
   number of dos      NEDOS =    301   number of ions     NIONS =     39
   non local maximal  LDIM  =      6   non local SUM 2l+1 LMDIM =     18
   total plane-waves  NPLWV = 108864
   max r-space proj   IRMAX =   2727   max aug-charges    IRDMAX=  11496
   dimension x,y,z NGX =    36 NGY =   36 NGZ =   84
   dimension x,y,z NGXF=    72 NGYF=   72 NGZF=  168
   support grid    NGXF=    72 NGYF=   72 NGZF=  168
   ions per type =              12  24   3
 NGX,Y,Z   is equivalent  to a cutoff of  10.70, 10.65, 10.00 a.u.
 NGXF,Y,Z  is equivalent  to a cutoff of  21.40, 21.31, 19.99 a.u.


 I would recommend the setting:
   dimension x,y,z NGX =    34 NGY =   34 NGZ =   84
 SYSTEM =  unknown system                          
 POSCAR =  Co  O Li                                

 Startparameter for this run:
   NWRITE =      2    write-flag & timer
   PREC   = normal    normal or accurate (medium, high low for compatibility)
   ISTART =      0    job   : 0-new  1-cont  2-samecut
   ICHARG =      2    charge: 1-file 2-atom 10-const
   ISPIN  =      2    spin polarized calculation?
   LNONCOLLINEAR =      F non collinear calculations
   LSORBIT =      F    spin-orbit coupling
   INIWAV =      1    electr: 0-lowe 1-rand  2-diag
   LASPH  =      F    aspherical Exc in radial PAW
   METAGGA=      F    non-selfconsistent MetaGGA calc.

 Electronic Relaxation 1
   ENCUT  =  600.0 eV  44.10 Ry    6.64 a.u.  11.17 11.22 27.90*2*pi/ulx,y,z
   ENINI  =  600.0     initial cutoff
   ENAUG  =  605.4 eV  augmentation charge cutoff
   NELM   =    500;   NELMIN=  2; NELMDL=  0     # of ELM steps 
   EDIFF  = 0.1E-05   stopping-criterion for ELM
   LREAL  =      T    real-space projection
   NLSPLINE    = F    spline interpolate recip. space projectors
   LCOMPAT=      F    compatible to vasp.4.4
   GGA_COMPAT  = T    GGA compatible to vasp.4.4-vasp.4.6
   LMAXPAW     = -100 max onsite density
   LMAXMIX     =    4 max onsite mixed and CHGCAR
   VOSKOWN=      0    Vosko Wilk Nusair interpolation
   ROPT   =   -0.00050  -0.00050  -0.00050
 Ionic relaxation
   EDIFFG = -.1E-01   stopping-criterion for IOM
   NSW    =    500    number of steps for IOM
   NBLOCK =      1;   KBLOCK =    500    inner block; outer block 
   IBRION =      2    ionic relax: 0-MD 1-quasi-New 2-CG
   NFREE  =      1    steps in history (QN), initial steepest desc. (CG)
   ISIF   =      3    stress and relaxation
   IWAVPR =     11    prediction:  0-non 1-charg 2-wave 3-comb
   ISYM   =      2    0-nonsym 1-usesym 2-fastsym
   LCORR  =      T    Harris-Foulkes like correction to forces

   POTIM  = 0.5000    time-step for ionic-motion
   TEIN   =    0.0    initial temperature
   TEBEG  =    0.0;   TEEND  =   0.0 temperature during run
   SMASS  =  -3.00    Nose mass-parameter (am)
   estimated Nose-frequenzy (Omega)   =  0.10E-29 period in steps =****** mass=  -0.715E-27a.u.
   SCALEE = 1.0000    scale energy and forces
   NPACO  =    256;   APACO  = 16.0  distance and # of slots for P.C.
   PSTRESS=    0.0 pullay stress

  Mass of Ions in am
   POMASS =  58.93 16.00  7.01
  Ionic Valenz
   ZVAL   =   9.00  6.00  1.00
  Atomic Wigner-Seitz radii
   RWIGS  =  -1.00 -1.00 -1.00
  virtual crystal weights 
   VCA    =   1.00  1.00  1.00
   NELECT =     255.0000    total number of electrons
   NUPDOWN=      -1.0000    fix difference up-down

 DOS related values:
   EMIN   =  10.00;   EMAX   =-10.00  energy-range for DOS
   EFERMI =   0.00
   ISMEAR =     0;   SIGMA  =   0.03  broadening in eV -4-tet -1-fermi 0-gaus

 Electronic relaxation 2 (details)
   IALGO  =     48    algorithm
   LDIAG  =      T    sub-space diagonalisation (order eigenvalues)
   LSUBROT=      F    optimize rotation matrix (better conditioning)
   TURBO    =      0    0=normal 1=particle mesh
   IRESTART =      0    0=no restart 2=restart with 2 vectors
   NREBOOT  =      0    no. of reboots
   NMIN     =      0    reboot dimension
   EREF     =   0.00    reference energy to select bands
   IMIX   =      4    mixing-type and parameters
     AMIX     =   0.40;   BMIX     =  1.00
     AMIX_MAG =   1.60;   BMIX_MAG =  1.00
     AMIN     =   0.10
     WC   =   100.;   INIMIX=   1;  MIXPRE=   1;  MAXMIX= -45

 Intra band minimization:
   WEIMIN = 0.0010     energy-eigenvalue tresh-hold
   EBREAK =  0.14E-08  absolut break condition
   DEPER  =   0.30     relativ break condition  

   TIME   =   0.40     timestep for ELM

  volume/ion in A,a.u.               =       9.74        65.76
  Fermi-wavevector in a.u.,A,eV,Ry     =   1.433215  2.708384 27.947797  2.054105
  Thomas-Fermi vector in A             =   2.552758
 
 Write flags
   LWAVE  =      F    write WAVECAR
   LCHARG =      F    write CHGCAR
   LVTOT  =      F    write LOCPOT, total local potential
   LVHAR  =      F    write LOCPOT, Hartree potential only
   LELF   =      F    write electronic localiz. function (ELF)
   LORBIT =      0    0 simple, 1 ext, 2 COOP (PROOUT)


 Dipole corrections
   LMONO  =      F    monopole corrections only (constant potential shift)
   LDIPOL =      F    correct potential (dipole corrections)
   IDIPOL =      0    1-x, 2-y, 3-z, 4-all directions 
   EPSILON=  1.0000000 bulk dielectric constant

 LDA+U is selected, type is set to LDAUTYPE =  2
   angular momentum for each species LDAUL =     2   -1   -1
   U (eV)           for each species LDAUU =   3.3  0.0  0.0
   J (eV)           for each species LDAUJ =   0.0  0.0  0.0
 Exchange correlation treatment:
   GGA     =    PE    GGA type
   LEXCH   =     8    internal setting for exchange type
   VOSKOWN=      0    Vosko Wilk Nusair interpolation
   LHFCALC =     F    Hartree Fock is set to
   LHFONE  =     F    Hartree Fock one center treatment
   AEXX    =    0.0000 exact exchange contribution

 Linear response parameters
   LEPSILON=     F    determine dielectric tensor
   LRPA    =     F    only Hartree local field effects (RPA)
   LNABLA  =     F    use nabla operator in PAW spheres
   LVEL    =     F    velocity operator in full k-point grid
   LINTERFAST=   F  fast interpolation
   KINTER  =     0    interpolate to denser k-point grid
   CSHIFT  =0.1000    complex shift for real part using Kramers Kronig
   OMEGAMAX=  -1.0    maximum frequency
   DEG_THRESHOLD= 0.2000000E-02 threshold for treating states as degnerate
   RTIME   =    0.100 relaxation time in fs

 Orbital magnetization related:
   ORBITALMAG=     F  switch on orbital magnetization
   LCHIMAG   =     F  perturbation theory with respect to B field
   DQ        =  0.001000  dq finite difference perturbation B field



--------------------------------------------------------------------------------------------------------


 conjugate gradient relaxation of ions
 charge density and potential will be updated during run
 spin polarized calculation
 RMM-DIIS sequential band-by-band
 perform sub-space diagonalisation
    before iterative eigenvector-optimisation
 modified Broyden-mixing scheme, WC =      100.0
 initial mixing is a Kerker type mixing with AMIX =  0.4000 and BMIX =      1.0000
 Hartree-type preconditioning will be used
 using additional bands           46
 real space projection scheme for non local part
 use partial core corrections
 calculate Harris-corrections to forces 
   (improved forces if not selfconsistent)
 use gradient corrections 
 use of overlap-Matrix (Vanderbilt PP)
 Gauss-broadening in eV      SIGMA  =   0.03


--------------------------------------------------------------------------------------------------------


  energy-cutoff  :      600.00
  volume of cell :      380.04
      direct lattice vectors                 reciprocal lattice vectors
     5.593301635 -0.006178452  0.014951933     0.178902116  0.103136742 -0.001088468
    -2.805742960  4.866734194 -0.013088196     0.000228628  0.205606888 -0.000565333
     0.062892998  0.038342529 13.970286326    -0.000191259  0.000082241  0.071581130

  length of vectors
     5.593325032  5.617603277 13.970480511     0.206505059  0.205607792  0.071581432


 
 k-points in units of 2pi/SCALE and weight: KPOINTS created by Atomic Simulation Env
   0.00000000  0.00000000  0.00000000       0.014
   0.02981702  0.01718946 -0.00018141       0.028
   0.05963404  0.03437891 -0.00036282       0.028
   0.08945106  0.05156837 -0.00054423       0.014
   0.00003810  0.03426781 -0.00009422       0.028
   0.02985512  0.05145727 -0.00027563       0.028
   0.05967214  0.06864673 -0.00045704       0.028
   0.08948916  0.08583619 -0.00063846       0.028
  -0.05959593 -0.00011110  0.00026860       0.028
  -0.02977891  0.01707836  0.00008719       0.028
   0.00007621  0.06853563 -0.00018844       0.028
   0.02989323  0.08572509 -0.00036986       0.028
   0.05971025  0.10291454 -0.00055127       0.028
   0.08952727  0.12010400 -0.00073268       0.028
  -0.05955783  0.03415672  0.00017438       0.028
  -0.02974081  0.05134617 -0.00000703       0.028
   0.00011431  0.10280344 -0.00028267       0.014
   0.02993133  0.11999290 -0.00046408       0.028
   0.05974835  0.13718236 -0.00064549       0.028
   0.08956537  0.15437181 -0.00082690       0.014
  -0.00009563  0.00004112  0.03579056       0.014
   0.02972139  0.01723058  0.03560915       0.028
   0.05953841  0.03442003  0.03542774       0.028
   0.08935543  0.05160949  0.03524633       0.014
  -0.00005752  0.03430894  0.03569634       0.028
   0.02975949  0.05149839  0.03551493       0.028
   0.05957651  0.06868785  0.03533352       0.028
   0.08939353  0.08587731  0.03515211       0.028
  -0.05969156 -0.00006998  0.03605917       0.028
  -0.02987454  0.01711948  0.03587775       0.028
  -0.00001942  0.06857675  0.03560212       0.028
   0.02979760  0.08576621  0.03542071       0.028
   0.05961462  0.10295566  0.03523930       0.028
   0.08943164  0.12014512  0.03505789       0.028
  -0.05965346  0.03419784  0.03596494       0.028
  -0.02983644  0.05138729  0.03578353       0.028
   0.00001868  0.10284456  0.03550790       0.014
   0.02983570  0.12003402  0.03532649       0.028
   0.05965272  0.13722348  0.03514508       0.028
   0.08946974  0.15441294  0.03496366       0.014
 
 k-points in reciprocal lattice and weights: KPOINTS created by Atomic Simulation Env
   0.00000000  0.00000000  0.00000000       0.014
   0.16666667 -0.00000000  0.00000000       0.028
   0.33333333 -0.00000000  0.00000000       0.028
   0.50000000 -0.00000000  0.00000000       0.014
   0.00000000  0.16666667  0.00000000       0.028
   0.16666667  0.16666667  0.00000000       0.028
   0.33333333  0.16666667 -0.00000000       0.028
   0.50000000  0.16666667  0.00000000       0.028
  -0.33333333  0.16666667  0.00000000       0.028
  -0.16666667  0.16666667 -0.00000000       0.028
   0.00000000  0.33333333  0.00000000       0.028
   0.16666667  0.33333333  0.00000000       0.028
   0.33333333  0.33333333  0.00000000       0.028
   0.50000000  0.33333333  0.00000000       0.028
  -0.33333333  0.33333333 -0.00000000       0.028
  -0.16666667  0.33333333 -0.00000000       0.028
   0.00000000  0.50000000 -0.00000000       0.014
   0.16666667  0.50000000  0.00000000       0.028
   0.33333333  0.50000000 -0.00000000       0.028
   0.50000000  0.50000000  0.00000000       0.014
   0.00000000 -0.00000000  0.50000000       0.014
   0.16666667 -0.00000000  0.50000000       0.028
   0.33333333 -0.00000000  0.50000000       0.028
   0.50000000 -0.00000000  0.50000000       0.014
   0.00000000  0.16666667  0.50000000       0.028
   0.16666667  0.16666667  0.50000000       0.028
   0.33333333  0.16666667  0.50000000       0.028
   0.50000000  0.16666667  0.50000000       0.028
  -0.33333333  0.16666667  0.50000000       0.028
  -0.16666667  0.16666667  0.50000000       0.028
  -0.00000000  0.33333333  0.50000000       0.028
   0.16666667  0.33333333  0.50000000       0.028
   0.33333333  0.33333333  0.50000000       0.028
   0.50000000  0.33333333  0.50000000       0.028
  -0.33333333  0.33333333  0.50000000       0.028
  -0.16666667  0.33333333  0.50000000       0.028
   0.00000000  0.50000000  0.50000000       0.014
   0.16666667  0.50000000  0.50000000       0.028
   0.33333333  0.50000000  0.50000000       0.028
   0.50000000  0.50000000  0.50000000       0.014
 
 position of ions in fractional coordinates (direct lattice) 
   0.16859514  0.32084835  0.16218463
   0.00577737  0.98981745  0.50134374
   0.34555411  0.19175331  0.84203301
   0.16861551  0.82083714  0.16093071
   0.00575405  0.49056009  0.50121743
   0.34457975  0.69144329  0.84160284
   0.66802021  0.32032915  0.15709685
   0.50519559  0.98991941  0.50088286
   0.84505285  0.19155907  0.84188629
   0.66812950  0.82048744  0.15709389
   0.50539625  0.48990870  0.49742174
   0.84540607  0.69113042  0.83765637
   0.33352197  0.15099945  0.09386618
   0.99187519  0.98033996  0.23264719
   0.16609095  0.31969678  0.42963076
   0.33643042  0.16075475  0.56879011
   0.01840195  0.03116198  0.77101033
   0.17907619  0.35781606  0.90827567
   0.33334067  0.65455903  0.09391386
   0.99163956  0.48541341  0.23265014
   0.16842847  0.82105689  0.43094879
   0.33636043  0.65141163  0.56867399
   0.01536081  0.52165930  0.77023501
   0.17191252  0.85382924  0.90744918
   0.83613772  0.15419709  0.09269236
   0.50590136  0.98979244  0.22947690
   0.68062601  0.32491333  0.42759615
   0.84298306  0.15948153  0.57035390
   0.51111703  0.02558730  0.77396927
   0.67738102  0.36184880  0.90713176
   0.84038694  0.65633546  0.09138434
   0.51035536  0.49208498  0.22935451
   0.68075461  0.82923207  0.42762518
   0.83534864  0.65529418  0.56716146
   0.50790690  0.52346920  0.77055599
   0.67903386  0.85559667  0.90744644
   0.82445622  0.64860935  0.33142377
   0.83404416  0.15343211  0.33295882
   0.19838491  0.33949988  0.66476088
 
 position of ions in cartesian coordinates  (Angst):
   0.05298573  1.56666054  2.26408724
  -2.71332775  4.83636554  6.99104709
   1.44773586  0.96336306 11.76609923
  -1.34981919  3.99992490  2.24002597
  -1.31267832  2.40660793  6.99581647
   0.04025724  3.39521094 11.75353500
   2.84755758  1.56085297  2.20048362
   0.07975396  4.83375843  6.99207440
   4.24211875  0.95932599 11.77152059
   1.44485305  3.99498965  2.19389774
   1.48356016  2.40020525  6.95026883
   2.84215958  3.39044261 11.70589419
   1.44772688  0.73641260  1.31434793
   2.81190705  4.77384601  3.25214741
   0.05903055  1.57132618  6.00036383
   1.46649321  0.80208085  7.94908701
   0.06398633  0.18110584 10.77110241
   0.05481142  1.77511484 12.68686555
   0.03385705  3.18710616  1.30842065
   4.19922596  2.36517165  3.25866278
  -1.33449970  4.01134867  6.01225017
   0.08943738  3.18997345  7.94104189
  -1.32928191  2.56821503 10.75380577
  -1.37699462  4.18909172 12.66872022
   4.24996276  0.74882426  1.30542247
   0.06698824  4.82272975  3.20046760
   2.92221609  1.59345672  5.97956486
   4.30346561  0.79281469  7.97852423
   2.83571760  0.15104461 10.81987959
   2.83059389  1.79161850 12.67828266
   2.86477648  3.19252184  1.28064063
   1.48833226  2.40048764  3.20533846
   1.50794849  4.04784229  5.97337164
   2.86944038  3.20572785  7.92732146
   1.42061905  2.57399244 10.76563069
   1.45452891  4.19455998 12.67624124
   2.81244546  3.16422307  4.63392312
   4.25551027  0.75432666  4.66199249
   0.19888607  1.67651859  9.28542266
 


--------------------------------------------------------------------------------------------------------


 k-point  1 :   0.0000 0.0000 0.0000  plane waves:   12685
 k-point  2 :   0.1667-0.0000 0.0000  plane waves:   12652
 k-point  3 :   0.3333-0.0000 0.0000  plane waves:   12694
 k-point  4 :   0.5000-0.0000 0.0000  plane waves:   12694
 k-point  5 :   0.0000 0.1667 0.0000  plane waves:   12670
 k-point  6 :   0.1667 0.1667 0.0000  plane waves:   12670
 k-point  7 :   0.3333 0.1667-0.0000  plane waves:   12695
 k-point  8 :   0.5000 0.1667 0.0000  plane waves:   12700
 k-point  9 :  -0.3333 0.1667 0.0000  plane waves:   12665
 k-point 10 :  -0.1667 0.1667-0.0000  plane waves:   12666
 k-point 11 :   0.0000 0.3333 0.0000  plane waves:   12678
 k-point 12 :   0.1667 0.3333 0.0000  plane waves:   12687
 k-point 13 :   0.3333 0.3333 0.0000  plane waves:   12684
 k-point 14 :   0.5000 0.3333 0.0000  plane waves:   12693
 k-point 15 :  -0.3333 0.3333-0.0000  plane waves:   12686
 k-point 16 :  -0.1667 0.3333-0.0000  plane waves:   12667
 k-point 17 :   0.0000 0.5000-0.0000  plane waves:   12700
 k-point 18 :   0.1667 0.5000 0.0000  plane waves:   12681
 k-point 19 :   0.3333 0.5000-0.0000  plane waves:   12689
 k-point 20 :   0.5000 0.5000 0.0000  plane waves:   12696
 k-point 21 :   0.0000-0.0000 0.5000  plane waves:   12686
 k-point 22 :   0.1667-0.0000 0.5000  plane waves:   12676
 k-point 23 :   0.3333-0.0000 0.5000  plane waves:   12686
 k-point 24 :   0.5000-0.0000 0.5000  plane waves:   12684
 k-point 25 :   0.0000 0.1667 0.5000  plane waves:   12674
 k-point 26 :   0.1667 0.1667 0.5000  plane waves:   12671
 k-point 27 :   0.3333 0.1667 0.5000  plane waves:   12705
 k-point 28 :   0.5000 0.1667 0.5000  plane waves:   12703
 k-point 29 :  -0.3333 0.1667 0.5000  plane waves:   12682
 k-point 30 :  -0.1667 0.1667 0.5000  plane waves:   12672
 k-point 31 :  -0.0000 0.3333 0.5000  plane waves:   12673
 k-point 32 :   0.1667 0.3333 0.5000  plane waves:   12694
 k-point 33 :   0.3333 0.3333 0.5000  plane waves:   12693
 k-point 34 :   0.5000 0.3333 0.5000  plane waves:   12699
 k-point 35 :  -0.3333 0.3333 0.5000  plane waves:   12677
 k-point 36 :  -0.1667 0.3333 0.5000  plane waves:   12669
 k-point 37 :   0.0000 0.5000 0.5000  plane waves:   12692
 k-point 38 :   0.1667 0.5000 0.5000  plane waves:   12694
 k-point 39 :   0.3333 0.5000 0.5000  plane waves:   12692
 k-point 40 :   0.5000 0.5000 0.5000  plane waves:   12676

 maximum and minimum number of plane-waves per node :      1612     1552

 maximum number of plane-waves:     12705
 maximum index in each direction: 
   IXMAX=   11   IYMAX=   11   IZMAX=   27
   IXMIN=  -11   IYMIN=  -11   IZMIN=  -28

 WARNING: aliasing errors must be expected set NGX to  46 to avoid them
 WARNING: aliasing errors must be expected set NGY to  46 to avoid them
 WARNING: aliasing errors must be expected set NGZ to 112 to avoid them
 aliasing errors are usually negligible using standard VASP settings
 and one can safely disregard these warnings

 real space projection operators:
  total allocation   :       7072.72 KBytes
  max/ min on nodes  :        990.12        773.64


 parallel 3D FFT for wavefunctions:
    minimum data exchange during FFTs selected (reduces bandwidth)
 parallel 3D FFT for charge:
    minimum data exchange during FFTs selected (reduces bandwidth)


 total amount of memory used by VASP on root node    99453. kBytes
========================================================================

   base      :      30000. kBytes
   nonlr-proj:       3003. kBytes
   fftplans  :       1238. kBytes
   grid      :       3364. kBytes
   one-center:        155. kBytes
   wavefun   :      61693. kBytes
 
     INWAV:  cpu time    0.0001: real time    0.0001
 Broyden mixing: mesh for mixing (old mesh)
   NGX = 23   NGY = 23   NGZ = 55
  (NGX  = 72   NGY  = 72   NGZ  =168)
  gives a total of  29095 points

 initial charge density was supplied:
 charge density of overlapping atoms calculated
 number of electron     255.0000000 magnetization      39.0000000
 keeping initial charge density in first step


--------------------------------------------------------------------------------------------------------


 Maximum index for non-local projection operator          446
 Maximum index for augmentation-charges          532 (set IRDMAX)


--------------------------------------------------------------------------------------------------------


 First call to EWALD:  gamma=   0.245
 Maximum number of real-space cells 4x 4x 2
 Maximum number of reciprocal cells 2x 2x 5

 FEWALD executed in parallel
    FEWALD:  cpu time    0.0019: real time    0.0019


----------------------------------------- Iteration    1(   1)  ---------------------------------------


    POTLOK:  cpu time    0.0293: real time    0.0296
    SETDIJ:  cpu time    0.0065: real time    0.0065
    EDDIAG:  cpu time    2.7509: real time    2.7695
  RMM-DIIS:  cpu time    4.0014: real time    4.0273
    ORTHCH:  cpu time    0.6434: real time    0.6473
       DOS:  cpu time    0.0077: real time    0.0078
    --------------------------------------------
      LOOP:  cpu time    7.4421: real time    7.4925

 eigenvalue-minimisations  : 13920
 total energy-change (2. order) : 0.2617048E+04  (-0.1190682E+05)
 number of electron     255.0000000 magnetization      39.0000000
 augmentation part      255.0000000 magnetization      39.0000000

 Free energy of the ion-electron system (eV)
  ---------------------------------------------------
  alpha Z        PSCENC =       757.16468481
  Ewald energy   TEWEN  =    -13909.45087547
  -Hartree energ DENC   =     -6993.22172351
  -exchange      EXHF   =         0.00000000
  -V(xc)+E(xc)   XCENC  =       858.28550211
  PAW double counting   =     16987.12331697   -17539.45435603
  entropy T*S    EENTRO =        -0.01317367
  eigenvalues    EBANDS =      2303.64381522
  atomic energy  EATOM  =     20152.97065086
  Solvation  Ediel_sol  =         0.00000000
  ---------------------------------------------------
  free energy    TOTEN  =      2617.04784130 eV

  energy without entropy =     2617.06101497  energy(sigma->0) =     2617.05442813


--------------------------------------------------------------------------------------------------------




----------------------------------------- Iteration    1(   2)  ---------------------------------------


    EDDIAG:  cpu time    2.8423: real time    2.8597
  RMM-DIIS:  cpu time    3.0395: real time    3.0577
    ORTHCH:  cpu time    0.5925: real time    0.5956
       DOS:  cpu time    0.0084: real time    0.0085
    --------------------------------------------
      LOOP:  cpu time    6.4853: real time    6.5348

 eigenvalue-minimisations  : 13920
 total energy-change (2. order) :-0.1946973E+04  (-0.2306778E+04)
 number of electron     255.0000000 magnetization      39.0000000
 augmentation part      255.0000000 magnetization      39.0000000

 Free energy of the ion-electron system (eV)
  ---------------------------------------------------
  alpha Z        PSCENC =       757.16468481
  Ewald energy   TEWEN  =    -13909.45087547
  -Hartree energ DENC   =     -6993.22172351
  -exchange      EXHF   =         0.00000000
  -V(xc)+E(xc)   XCENC  =       858.28550211
  PAW double counting   =     16987.12331697   -17539.45435603
  entropy T*S    EENTRO =        -0.00434059
  eigenvalues    EBANDS =       356.66246879
  atomic energy  EATOM  =     20152.97065086
  Solvation  Ediel_sol  =         0.00000000
  ---------------------------------------------------
  free energy    TOTEN  =       670.07532795 eV

  energy without entropy =      670.07966854  energy(sigma->0) =      670.07749824


--------------------------------------------------------------------------------------------------------




----------------------------------------- Iteration    1(   3)  ---------------------------------------


    EDDIAG:  cpu time    2.6311: real time    2.6472
  RMM-DIIS:  cpu time    3.0421: real time    3.0626
    ORTHCH:  cpu time    0.5807: real time    0.5840
       DOS:  cpu time    0.0088: real time    0.0089
    --------------------------------------------
      LOOP:  cpu time    6.2638: real time    6.3134

 eigenvalue-minimisations  : 13920
 total energy-change (2. order) :-0.5772664E+03  (-0.5583750E+03)
 number of electron     255.0000000 magnetization      39.0000000
 augmentation part      255.0000000 magnetization      39.0000000

 Free energy of the ion-electron system (eV)
  ---------------------------------------------------
  alpha Z        PSCENC =       757.16468481
  Ewald energy   TEWEN  =    -13909.45087547
  -Hartree energ DENC   =     -6993.22172351
  -exchange      EXHF   =         0.00000000
  -V(xc)+E(xc)   XCENC  =       858.28550211
  PAW double counting   =     16987.12331697   -17539.45435603
  entropy T*S    EENTRO =        -0.02262990
  eigenvalues    EBANDS =      -220.58568331
  atomic energy  EATOM  =     20152.97065086
  Solvation  Ediel_sol  =         0.00000000
  ---------------------------------------------------
  free energy    TOTEN  =        92.80888655 eV

  energy without entropy =       92.83151644  energy(sigma->0) =       92.82020149


--------------------------------------------------------------------------------------------------------




----------------------------------------- Iteration    1(   4)  ---------------------------------------


    EDDIAG:  cpu time    2.6179: real time    2.6359
  RMM-DIIS:  cpu time    2.9754: real time    2.9950
    ORTHCH:  cpu time    0.5848: real time    0.5882
       DOS:  cpu time    0.0087: real time    0.0087
    --------------------------------------------
      LOOP:  cpu time    6.1881: real time    6.2383

 eigenvalue-minimisations  : 13920
 total energy-change (2. order) :-0.2129875E+03  (-0.1757317E+03)
 number of electron     255.0000000 magnetization      39.0000000
 augmentation part      255.0000000 magnetization      39.0000000

 Free energy of the ion-electron system (eV)
  ---------------------------------------------------
  alpha Z        PSCENC =       757.16468481
  Ewald energy   TEWEN  =    -13909.45087547
  -Hartree energ DENC   =     -6993.22172351
  -exchange      EXHF   =         0.00000000
  -V(xc)+E(xc)   XCENC  =       858.28550211
  PAW double counting   =     16987.12331697   -17539.45435603
  entropy T*S    EENTRO =        -0.02276455
  eigenvalues    EBANDS =      -433.57303546
  atomic energy  EATOM  =     20152.97065086
  Solvation  Ediel_sol  =         0.00000000
  ---------------------------------------------------
  free energy    TOTEN  =      -120.17860026 eV

  energy without entropy =     -120.15583571  energy(sigma->0) =     -120.16721798


--------------------------------------------------------------------------------------------------------




----------------------------------------- Iteration    1(   5)  ---------------------------------------


    EDDIAG:  cpu time    2.6329: real time    2.6514
  RMM-DIIS:  cpu time    3.0378: real time    3.0572
    ORTHCH:  cpu time    0.5750: real time    0.5785
       DOS:  cpu time    0.0088: real time    0.0089
    --------------------------------------------
      LOOP:  cpu time    6.2559: real time    6.3065

 eigenvalue-minimisations  : 13920
 total energy-change (2. order) :-0.1133414E+03  (-0.7212269E+02)
 number of electron     255.0000000 magnetization      39.0000000
 augmentation part      255.0000000 magnetization      39.0000000

 Free energy of the ion-electron system (eV)
  ---------------------------------------------------
  alpha Z        PSCENC =       757.16468481
  Ewald energy   TEWEN  =    -13909.45087547
  -Hartree energ DENC   =     -6993.22172351
  -exchange      EXHF   =         0.00000000
  -V(xc)+E(xc)   XCENC  =       858.28550211
  PAW double counting   =     16987.12331697   -17539.45435603
  entropy T*S    EENTRO =        -0.02516069
  eigenvalues    EBANDS =      -546.91201307
  atomic energy  EATOM  =     20152.97065086
  Solvation  Ediel_sol  =         0.00000000
  ---------------------------------------------------
  free energy    TOTEN  =      -233.51997401 eV

  energy without entropy =     -233.49481332  energy(sigma->0) =     -233.50739367


--------------------------------------------------------------------------------------------------------




----------------------------------------- Iteration    1(   6)  ---------------------------------------


    EDDIAG:  cpu time    2.5973: real time    2.6143
  RMM-DIIS:  cpu time    3.0560: real time    3.1035
    ORTHCH:  cpu time    0.5821: real time    0.5857
       DOS:  cpu time    0.0078: real time    0.0079
    --------------------------------------------
      LOOP:  cpu time    6.2445: real time    6.3226

 eigenvalue-minimisations  : 13920
 total energy-change (2. order) :-0.3063548E+02  (-0.2022800E+02)
 number of electron     255.0000000 magnetization      39.0000000
 augmentation part      255.0000000 magnetization      39.0000000

 Free energy of the ion-electron system (eV)
  ---------------------------------------------------
  alpha Z        PSCENC =       757.16468481
  Ewald energy   TEWEN  =    -13909.45087547
  -Hartree energ DENC   =     -6993.22172351
  -exchange      EXHF   =         0.00000000
  -V(xc)+E(xc)   XCENC  =       858.28550211
  PAW double counting   =     16987.12331697   -17539.45435603
  entropy T*S    EENTRO =        -0.02128566
  eigenvalues    EBANDS =      -577.55136870
  atomic energy  EATOM  =     20152.97065086
  Solvation  Ediel_sol  =         0.00000000
  ---------------------------------------------------
  free energy    TOTEN  =      -264.15545461 eV

  energy without entropy =     -264.13416895  energy(sigma->0) =     -264.14481178


--------------------------------------------------------------------------------------------------------




----------------------------------------- Iteration    1(   7)  ---------------------------------------


    EDDIAG:  cpu time    2.6754: real time    2.6932
  RMM-DIIS:  cpu time    2.9803: real time    2.9980
    ORTHCH:  cpu time    0.6983: real time    0.7039
       DOS:  cpu time    0.0088: real time    0.0088
    --------------------------------------------
      LOOP:  cpu time    6.3641: real time    6.4140

 eigenvalue-minimisations  : 13920
 total energy-change (2. order) :-0.1067109E+02  (-0.7966138E+01)
 number of electron     255.0000000 magnetization      39.0000000
 augmentation part      255.0000000 magnetization      39.0000000

 Free energy of the ion-electron system (eV)
  ---------------------------------------------------
  alpha Z        PSCENC =       757.16468481
  Ewald energy   TEWEN  =    -13909.45087547
  -Hartree energ DENC   =     -6993.22172351
  -exchange      EXHF   =         0.00000000
  -V(xc)+E(xc)   XCENC  =       858.28550211
  PAW double counting   =     16987.12331697   -17539.45435603
  entropy T*S    EENTRO =        -0.02443866
  eigenvalues    EBANDS =      -588.21930389
  atomic energy  EATOM  =     20152.97065086
  Solvation  Ediel_sol  =         0.00000000
  ---------------------------------------------------
  free energy    TOTEN  =      -274.82654280 eV

  energy without entropy =     -274.80210414  energy(sigma->0) =     -274.81432347


--------------------------------------------------------------------------------------------------------




----------------------------------------- Iteration    1(   8)  ---------------------------------------


    EDDIAG:  cpu time    2.7025: real time    2.7199
  RMM-DIIS:  cpu time    3.2769: real time    3.2981
    ORTHCH:  cpu time    0.6030: real time    0.6052
       DOS:  cpu time    0.0087: real time    0.0087
    --------------------------------------------
      LOOP:  cpu time    6.5927: real time    6.6433

 eigenvalue-minimisations  : 13920
 total energy-change (2. order) :-0.2510750E+01  (-0.1747310E+01)
 number of electron     255.0000000 magnetization      39.0000000
 augmentation part      255.0000000 magnetization      39.0000000

 Free energy of the ion-electron system (eV)
  ---------------------------------------------------
  alpha Z        PSCENC =       757.16468481
  Ewald energy   TEWEN  =    -13909.45087547
  -Hartree energ DENC   =     -6993.22172351
  -exchange      EXHF   =         0.00000000
  -V(xc)+E(xc)   XCENC  =       858.28550211
  PAW double counting   =     16987.12331697   -17539.45435603
  entropy T*S    EENTRO =        -0.02570095
  eigenvalues    EBANDS =      -590.72879125
  atomic energy  EATOM  =     20152.97065086
  Solvation  Ediel_sol  =         0.00000000
  ---------------------------------------------------
  free energy    TOTEN  =      -277.33729244 eV

  energy without entropy =     -277.31159150  energy(sigma->0) =     -277.32444197


--------------------------------------------------------------------------------------------------------




----------------------------------------- Iteration    1(   9)  ---------------------------------------


    EDDIAG:  cpu time    2.7212: real time    2.7380
  RMM-DIIS:  cpu time    7.7196: real time    7.7649
    ORTHCH:  cpu time    0.6026: real time    0.6063
       DOS:  cpu time    0.0087: real time    0.0087
    --------------------------------------------
      LOOP:  cpu time   11.0534: real time   11.1295

 eigenvalue-minimisations  : 37664
 total energy-change (2. order) :-0.1286193E+01  (-0.1103190E+01)
 number of electron     255.0000000 magnetization      39.0000000
 augmentation part      255.0000000 magnetization      39.0000000

 Free energy of the ion-electron system (eV)
  ---------------------------------------------------
  alpha Z        PSCENC =       757.16468481
  Ewald energy   TEWEN  =    -13909.45087547
  -Hartree energ DENC   =     -6993.22172351
  -exchange      EXHF   =         0.00000000
  -V(xc)+E(xc)   XCENC  =       858.28550211
  PAW double counting   =     16987.12331697   -17539.45435603
  entropy T*S    EENTRO =        -0.02617468
  eigenvalues    EBANDS =      -592.01451035
  atomic energy  EATOM  =     20152.97065086
  Solvation  Ediel_sol  =         0.00000000
  ---------------------------------------------------
  free energy    TOTEN  =      -278.62348528 eV

  energy without entropy =     -278.59731060  energy(sigma->0) =     -278.61039794


--------------------------------------------------------------------------------------------------------




----------------------------------------- Iteration    1(  10)  ---------------------------------------


    EDDIAG:  cpu time    2.8370: real time    2.8608
  RMM-DIIS:  cpu time    7.8540: real time    7.8983
    ORTHCH:  cpu time    0.6021: real time    0.6054
       DOS:  cpu time    0.0085: real time    0.0086
    --------------------------------------------
      LOOP:  cpu time   11.3033: real time   11.3842

 eigenvalue-minimisations  : 38140
 total energy-change (2. order) : 0.2680566E-01  (-0.2622748E-01)
 number of electron     255.0000000 magnetization      39.0000000
 augmentation part      255.0000000 magnetization      39.0000000

 Free energy of the ion-electron system (eV)
  ---------------------------------------------------
  alpha Z        PSCENC =       757.16468481
  Ewald energy   TEWEN  =    -13909.45087547
  -Hartree energ DENC   =     -6993.22172351
  -exchange      EXHF   =         0.00000000
  -V(xc)+E(xc)   XCENC  =       858.28550211
  PAW double counting   =     16987.12331697   -17539.45435603
  entropy T*S    EENTRO =        -0.02621260
  eigenvalues    EBANDS =      -591.98766677
  atomic energy  EATOM  =     20152.97065086
  Solvation  Ediel_sol  =         0.00000000
  ---------------------------------------------------
  free energy    TOTEN  =      -278.59667962 eV

  energy without entropy =     -278.57046702  energy(sigma->0) =     -278.58357332


--------------------------------------------------------------------------------------------------------




----------------------------------------- Iteration    1(  11)  ---------------------------------------


    EDDIAG:  cpu time    2.7398: real time    2.7849
  RMM-DIIS:  cpu time    8.0328: real time    8.0780
    ORTHCH:  cpu time    0.6429: real time    0.6465
       DOS:  cpu time    0.0091: real time    0.0091
    --------------------------------------------
      LOOP:  cpu time   11.4263: real time   11.5294

 eigenvalue-minimisations  : 39324
 total energy-change (2. order) :-0.7303221E-03  (-0.2131344E-02)
 number of electron     255.0000000 magnetization      39.0000000
 augmentation part      255.0000000 magnetization      39.0000000

 Free energy of the ion-electron system (eV)
  ---------------------------------------------------
  alpha Z        PSCENC =       757.16468481
  Ewald energy   TEWEN  =    -13909.45087547
  -Hartree energ DENC   =     -6993.22172351
  -exchange      EXHF   =         0.00000000
  -V(xc)+E(xc)   XCENC  =       858.28550211
  PAW double counting   =     16987.12331697   -17539.45435603
  entropy T*S    EENTRO =        -0.02621458
  eigenvalues    EBANDS =      -591.98839511
  atomic energy  EATOM  =     20152.97065086
  Solvation  Ediel_sol  =         0.00000000
  ---------------------------------------------------
  free energy    TOTEN  =      -278.59740994 eV

  energy without entropy =     -278.57119536  energy(sigma->0) =     -278.58430265


--------------------------------------------------------------------------------------------------------




----------------------------------------- Iteration    1(  12)  ---------------------------------------


    EDDIAG:  cpu time    2.7408: real time    2.7563
  RMM-DIIS:  cpu time    7.7332: real time    7.7795
    ORTHCH:  cpu time    0.6022: real time    0.6055
       DOS:  cpu time    0.0092: real time    0.0092
    CHARGE:  cpu time    0.3555: real time    0.3574
    MIXING:  cpu time    0.0007: real time    0.0007
    --------------------------------------------
      LOOP:  cpu time   11.4439: real time   11.5216

 eigenvalue-minimisations  : 37898
 total energy-change (2. order) :-0.1263031E-03  (-0.1391222E-03)
 number of electron     255.0000091 magnetization      32.1357063
 augmentation part       66.5232072 magnetization      28.4679254

 Broyden mixing:
  rms(total) = 0.10030E+02    rms(broyden)= 0.10030E+02
  rms(prec ) = 0.11132E+02
  weight for this iteration     100.00

 Free energy of the ion-electron system (eV)
  ---------------------------------------------------
  alpha Z        PSCENC =       757.16468481
  Ewald energy   TEWEN  =    -13909.45087547
  -Hartree energ DENC   =     -6993.22172351
  -exchange      EXHF   =         0.00000000
  -V(xc)+E(xc)   XCENC  =       858.28550211
  PAW double counting   =     16987.12331697   -17539.45435603
  entropy T*S    EENTRO =        -0.02621485
  eigenvalues    EBANDS =      -591.98852114
  atomic energy  EATOM  =     20152.97065086
  Solvation  Ediel_sol  =         0.00000000
  ---------------------------------------------------
  free energy    TOTEN  =      -278.59753624 eV

  energy without entropy =     -278.57132140  energy(sigma->0) =     -278.58442882


--------------------------------------------------------------------------------------------------------




----------------------------------------- Iteration    1(  13)  ---------------------------------------


    POTLOK:  cpu time    0.0268: real time    0.0269
    SETDIJ:  cpu time    0.0062: real time    0.0062
    EDDIAG:  cpu time    2.6795: real time    2.6973
  RMM-DIIS:  cpu time    7.0059: real time    7.0452
    ORTHCH:  cpu time    0.6018: real time    0.6046
       DOS:  cpu time    0.0089: real time    0.0089
    CHARGE:  cpu time    0.3407: real time    0.3424
    MIXING:  cpu time    0.0007: real time    0.0007
    --------------------------------------------
      LOOP:  cpu time   10.6718: real time   10.7422

 eigenvalue-minimisations  : 34131
 total energy-change (2. order) :-0.1614770E+03  (-0.1040865E+03)
 number of electron     255.0000084 magnetization      31.3882837
 augmentation part       88.6127436 magnetization      28.4395388

 Broyden mixing:
  rms(total) = 0.26323E+02    rms(broyden)= 0.26323E+02
  rms(prec ) = 0.31547E+02
  weight for this iteration     100.00

 eigenvalues of (default mixing * dielectric matrix)
  average eigenvalue GAMMA=   0.0823
  0.0823

 Free energy of the ion-electron system (eV)
  ---------------------------------------------------
  alpha Z        PSCENC =       757.16468481
  Ewald energy   TEWEN  =    -13909.45087547
  -Hartree energ DENC   =     -6826.39179561
  -exchange      EXHF   =         0.00000000
  -V(xc)+E(xc)   XCENC  =       882.51722834
  PAW double counting   =     19343.24066081   -19765.70219479
  entropy T*S    EENTRO =        -0.01004325
  eigenvalues    EBANDS =     -1074.41283997
  atomic energy  EATOM  =     20152.97065086
  Solvation  Ediel_sol  =         0.00000000
  ---------------------------------------------------
  free energy    TOTEN  =      -440.07452428 eV

  energy without entropy =     -440.06448102  energy(sigma->0) =     -440.06950265


--------------------------------------------------------------------------------------------------------




----------------------------------------- Iteration    1(  14)  ---------------------------------------


    POTLOK:  cpu time    0.0259: real time    0.0261
    SETDIJ:  cpu time    0.0068: real time    0.0068
    EDDIAG:  cpu time    2.6840: real time    2.7011
  RMM-DIIS:  cpu time    5.5978: real time    5.6343
    ORTHCH:  cpu time    0.6138: real time    0.6174
       DOS:  cpu time    0.0089: real time    0.0090
    CHARGE:  cpu time    0.3754: real time    0.3776
    MIXING:  cpu time    0.0008: real time    0.0008
    --------------------------------------------
      LOOP:  cpu time    9.3150: real time    9.3844

 eigenvalue-minimisations  : 27840
 total energy-change (2. order) : 0.1475480E+03  (-0.5357364E+01)
 number of electron     255.0000038 magnetization      28.7392675
 augmentation part       91.6195922 magnetization      24.7284663

 Broyden mixing:
  rms(total) = 0.12221E+02    rms(broyden)= 0.12221E+02
  rms(prec ) = 0.13440E+02
  weight for this iteration     100.00

 eigenvalues of (default mixing * dielectric matrix)
  average eigenvalue GAMMA=   0.2684
  0.2684  0.2684

 Free energy of the ion-electron system (eV)
  ---------------------------------------------------
  alpha Z        PSCENC =       757.16468481
  Ewald energy   TEWEN  =    -13909.45087547
  -Hartree energ DENC   =     -6855.78472402
  -exchange      EXHF   =         0.00000000
  -V(xc)+E(xc)   XCENC  =       881.54472602
  PAW double counting   =     19708.06521503   -20155.14912767
  entropy T*S    EENTRO =        -0.00959202
  eigenvalues    EBANDS =      -871.87744079
  atomic energy  EATOM  =     20152.97065086
  Solvation  Ediel_sol  =         0.00000000
  ---------------------------------------------------
  free energy    TOTEN  =      -292.52648325 eV

  energy without entropy =     -292.51689123  energy(sigma->0) =     -292.52168724


--------------------------------------------------------------------------------------------------------




----------------------------------------- Iteration    1(  15)  ---------------------------------------


    POTLOK:  cpu time    0.0268: real time    0.0270
    SETDIJ:  cpu time    0.0064: real time    0.0064
    EDDIAG:  cpu time    2.8505: real time    2.8689
  RMM-DIIS:  cpu time    5.7019: real time    5.7333
    ORTHCH:  cpu time    0.6127: real time    0.6159
       DOS:  cpu time    0.0086: real time    0.0087
    CHARGE:  cpu time    0.3451: real time    0.3472
    MIXING:  cpu time    0.0008: real time    0.0008
    --------------------------------------------
      LOOP:  cpu time    9.5548: real time    9.6192

 eigenvalue-minimisations  : 27840
 total energy-change (2. order) :-0.8191446E+02  (-0.2259546E+02)
 number of electron     255.0000093 magnetization      26.8487922
 augmentation part       77.7588717 magnetization      22.1350086

 Broyden mixing:
  rms(total) = 0.15745E+02    rms(broyden)= 0.15745E+02
  rms(prec ) = 0.25584E+02
  weight for this iteration     100.00

 eigenvalues of (default mixing * dielectric matrix)
  average eigenvalue GAMMA=   0.3274
  0.4360  0.4360  0.1103

 Free energy of the ion-electron system (eV)
  ---------------------------------------------------
  alpha Z        PSCENC =       757.16468481
  Ewald energy   TEWEN  =    -13909.45087547
  -Hartree energ DENC   =     -6996.68903973
  -exchange      EXHF   =         0.00000000
  -V(xc)+E(xc)   XCENC  =       875.55221140
  PAW double counting   =     20559.27362352   -21114.66433213
  entropy T*S    EENTRO =        -0.00941486
  eigenvalues    EBANDS =      -698.58844813
  atomic energy  EATOM  =     20152.97065086
  Solvation  Ediel_sol  =         0.00000000
  ---------------------------------------------------
  free energy    TOTEN  =      -374.44093972 eV

  energy without entropy =     -374.43152486  energy(sigma->0) =     -374.43623229


--------------------------------------------------------------------------------------------------------




----------------------------------------- Iteration    1(  16)  ---------------------------------------


    POTLOK:  cpu time    0.0261: real time    0.0263
    SETDIJ:  cpu time    0.0061: real time    0.0061
    EDDIAG:  cpu time    2.7005: real time    2.7182
  RMM-DIIS:  cpu time    5.9777: real time    6.0129
    ORTHCH:  cpu time    0.6078: real time    0.6115
       DOS:  cpu time    0.0092: real time    0.0093
    CHARGE:  cpu time    0.3457: real time    0.3477
    MIXING:  cpu time    0.0008: real time    0.0008
    --------------------------------------------
      LOOP:  cpu time    9.6754: real time    9.7433

 eigenvalue-minimisations  : 28865
 total energy-change (2. order) : 0.1181487E+03  (-0.1231043E+02)
 number of electron     255.0000086 magnetization      25.5775376
 augmentation part       69.9232909 magnetization      20.0978698

 Broyden mixing:
  rms(total) = 0.10550E+02    rms(broyden)= 0.10549E+02
  rms(prec ) = 0.12168E+02
  weight for this iteration     100.00

 eigenvalues of (default mixing * dielectric matrix)
  average eigenvalue GAMMA=   0.2848
  0.4478  0.4478  0.1008  0.1429

 Free energy of the ion-electron system (eV)
  ---------------------------------------------------
  alpha Z        PSCENC =       757.16468481
  Ewald energy   TEWEN  =    -13909.45087547
  -Hartree energ DENC   =     -7031.02357280
  -exchange      EXHF   =         0.00000000
  -V(xc)+E(xc)   XCENC  =       874.91920433
  PAW double counting   =     20813.89437187   -21381.95965839
  entropy T*S    EENTRO =        -0.01530837
  eigenvalues    EBANDS =      -532.79178443
  atomic energy  EATOM  =     20152.97065086
  Solvation  Ediel_sol  =         0.00000000
  ---------------------------------------------------
  free energy    TOTEN  =      -256.29228758 eV

  energy without entropy =     -256.27697921  energy(sigma->0) =     -256.28463340


--------------------------------------------------------------------------------------------------------




----------------------------------------- Iteration    1(  17)  ---------------------------------------


    POTLOK:  cpu time    0.0259: real time    0.0261
    SETDIJ:  cpu time    0.0069: real time    0.0069
    EDDIAG:  cpu time    2.6665: real time    2.6846
  RMM-DIIS:  cpu time    5.8343: real time    5.8698
    ORTHCH:  cpu time    0.6040: real time    0.6075
       DOS:  cpu time    0.0087: real time    0.0088
    CHARGE:  cpu time    0.3362: real time    0.3379
    MIXING:  cpu time    0.0008: real time    0.0008
    --------------------------------------------
      LOOP:  cpu time    9.4847: real time    9.5523

 eigenvalue-minimisations  : 28481
 total energy-change (2. order) : 0.2425137E+02  (-0.2581870E+01)
 number of electron     255.0000079 magnetization      22.3096189
 augmentation part       71.0995918 magnetization      17.2830956

 Broyden mixing:
  rms(total) = 0.68775E+01    rms(broyden)= 0.68774E+01
  rms(prec ) = 0.83322E+01
  weight for this iteration     100.00

 eigenvalues of (default mixing * dielectric matrix)
  average eigenvalue GAMMA=   0.3716
  1.0376  0.2727  0.2727  0.1115  0.1637

 Free energy of the ion-electron system (eV)
  ---------------------------------------------------
  alpha Z        PSCENC =       757.16468481
  Ewald energy   TEWEN  =    -13909.45087547
  -Hartree energ DENC   =     -7031.46788117
  -exchange      EXHF   =         0.00000000
  -V(xc)+E(xc)   XCENC  =       873.89080212
  PAW double counting   =     21206.54377923   -21778.08912543
  entropy T*S    EENTRO =        -0.00813253
  eigenvalues    EBANDS =      -503.59481986
  atomic energy  EATOM  =     20152.97065086
  Solvation  Ediel_sol  =         0.00000000
  ---------------------------------------------------
  free energy    TOTEN  =      -232.04091744 eV

  energy without entropy =     -232.03278491  energy(sigma->0) =     -232.03685117


--------------------------------------------------------------------------------------------------------




----------------------------------------- Iteration    1(  18)  ---------------------------------------


    POTLOK:  cpu time    0.0256: real time    0.0258
    SETDIJ:  cpu time    0.0059: real time    0.0060
    EDDIAG:  cpu time    2.6583: real time    2.6739
  RMM-DIIS:  cpu time    5.7502: real time    5.7822
    ORTHCH:  cpu time    0.6307: real time    0.6342
       DOS:  cpu time    0.0091: real time    0.0092
    CHARGE:  cpu time    0.3778: real time    0.3797
    MIXING:  cpu time    0.0011: real time    0.0011
    --------------------------------------------
      LOOP:  cpu time    9.4605: real time    9.5222

 eigenvalue-minimisations  : 28013
 total energy-change (2. order) :-0.1546809E+02  (-0.3868982E+01)
 number of electron     255.0000097 magnetization      20.9618981
 augmentation part       70.4945787 magnetization      18.2847329

 Broyden mixing:
  rms(total) = 0.11024E+02    rms(broyden)= 0.11024E+02
  rms(prec ) = 0.16058E+02
  weight for this iteration     100.00

 eigenvalues of (default mixing * dielectric matrix)
  average eigenvalue GAMMA=   0.3586
  1.1563  0.2502  0.2502  0.2727  0.1081  0.1142

 Free energy of the ion-electron system (eV)
  ---------------------------------------------------
  alpha Z        PSCENC =       757.16468481
  Ewald energy   TEWEN  =    -13909.45087547
  -Hartree energ DENC   =     -7040.22026905
  -exchange      EXHF   =         0.00000000
  -V(xc)+E(xc)   XCENC  =       871.71663840
  PAW double counting   =     22168.77100427   -22748.65121676
  entropy T*S    EENTRO =        -0.00931900
  eigenvalues    EBANDS =      -499.80030631
  atomic energy  EATOM  =     20152.97065086
  Solvation  Ediel_sol  =         0.00000000
  ---------------------------------------------------
  free energy    TOTEN  =      -247.50900825 eV

  energy without entropy =     -247.49968926  energy(sigma->0) =     -247.50434875


--------------------------------------------------------------------------------------------------------




----------------------------------------- Iteration    1(  19)  ---------------------------------------


    POTLOK:  cpu time    0.0273: real time    0.0274
    SETDIJ:  cpu time    0.0064: real time    0.0064
    EDDIAG:  cpu time    2.8558: real time    2.8724
  RMM-DIIS:  cpu time    5.7194: real time    5.7534
    ORTHCH:  cpu time    0.6007: real time    0.6039
       DOS:  cpu time    0.0089: real time    0.0089
    CHARGE:  cpu time    0.3864: real time    0.3885
    MIXING:  cpu time    0.0009: real time    0.0009
    --------------------------------------------
      LOOP:  cpu time    9.6076: real time    9.6724

 eigenvalue-minimisations  : 27898
 total energy-change (2. order) : 0.2038884E+02  (-0.1584426E+01)
 number of electron     255.0000076 magnetization      19.2657676
 augmentation part       71.2251633 magnetization      16.7013869

 Broyden mixing:
  rms(total) = 0.58468E+01    rms(broyden)= 0.58467E+01
  rms(prec ) = 0.75241E+01
  weight for this iteration     100.00

 eigenvalues of (default mixing * dielectric matrix)
  average eigenvalue GAMMA=   0.3633
  1.1959  0.3983  0.3015  0.3015  0.1575  0.1112  0.0774

 Free energy of the ion-electron system (eV)
  ---------------------------------------------------
  alpha Z        PSCENC =       757.16468481
  Ewald energy   TEWEN  =    -13909.45087547
  -Hartree energ DENC   =     -7037.87568397
  -exchange      EXHF   =         0.00000000
  -V(xc)+E(xc)   XCENC  =       871.68571346
  PAW double counting   =     22462.67294564   -23043.07790011
  entropy T*S    EENTRO =        -0.01105654
  eigenvalues    EBANDS =      -481.19864955
  atomic energy  EATOM  =     20152.97065086
  Solvation  Ediel_sol  =         0.00000000
  ---------------------------------------------------
  free energy    TOTEN  =      -227.12017087 eV

  energy without entropy =     -227.10911433  energy(sigma->0) =     -227.11464260


--------------------------------------------------------------------------------------------------------




----------------------------------------- Iteration    1(  20)  ---------------------------------------


    POTLOK:  cpu time    0.0374: real time    0.0376
    SETDIJ:  cpu time    0.0062: real time    0.0062
    EDDIAG:  cpu time    2.9024: real time    2.9231
  RMM-DIIS:  cpu time    5.7181: real time    5.7542
    ORTHCH:  cpu time    0.5734: real time    0.5771
       DOS:  cpu time    0.0088: real time    0.0089
    CHARGE:  cpu time    0.3406: real time    0.3427
    MIXING:  cpu time    0.0011: real time    0.0011
    --------------------------------------------
      LOOP:  cpu time    9.5894: real time    9.6607

 eigenvalue-minimisations  : 27893
 total energy-change (2. order) : 0.1603333E+02  (-0.1640998E+01)
 number of electron     255.0000078 magnetization      17.5481694
 augmentation part       72.6004993 magnetization      15.1815803

 Broyden mixing:
  rms(total) = 0.37537E+01    rms(broyden)= 0.37536E+01
  rms(prec ) = 0.46249E+01
  weight for this iteration     100.00

 eigenvalues of (default mixing * dielectric matrix)
  average eigenvalue GAMMA=   0.3697
  1.3216  0.3208  0.3208  0.3679  0.3072  0.1176  0.1176  0.0843

 Free energy of the ion-electron system (eV)
  ---------------------------------------------------
  alpha Z        PSCENC =       757.16468481
  Ewald energy   TEWEN  =    -13909.45087547
  -Hartree energ DENC   =     -7021.55699557
  -exchange      EXHF   =         0.00000000
  -V(xc)+E(xc)   XCENC  =       871.66017512
  PAW double counting   =     22693.83989067   -23266.70126776
  entropy T*S    EENTRO =        -0.01006401
  eigenvalues    EBANDS =      -489.00304128
  atomic energy  EATOM  =     20152.97065086
  Solvation  Ediel_sol  =         0.00000000
  ---------------------------------------------------
  free energy    TOTEN  =      -211.08684264 eV

[...]
  0.000  -0.003  -0.000   0.000  -0.001   0.000  -0.003  -0.000
  0.000   0.000  -0.002   0.000   0.000   0.000   0.000  -0.001
 -0.001   0.000  -0.000  -0.003   0.000  -0.001   0.000  -0.000
  0.000  -0.004  -0.000   0.000  -0.001   0.000  -0.004  -0.000
  0.000   0.000  -0.003   0.001   0.000   0.000   0.000  -0.003
 -0.001   0.000  -0.000  -0.004   0.000  -0.001   0.000  -0.000
 pseudopotential strength for first ion, spin component:           2
 -4.735   0.003  -0.011   0.687  -0.013  -5.256   0.002  -0.011
  0.003  -4.365   0.001   0.003   0.686   0.002  -4.883   0.001
 -0.011   0.001  -5.076   0.007  -0.009  -0.011   0.001  -5.612
  0.687   0.003   0.007  -4.369   0.001   0.699   0.003   0.007
 -0.013   0.686  -0.009   0.001  -4.725  -0.012   0.699  -0.009
 -5.256   0.002  -0.011   0.699  -0.012  -5.730   0.002  -0.010
  0.002  -4.883   0.001   0.003   0.699   0.002  -5.350   0.001
 -0.011   0.001  -5.612   0.007  -0.009  -0.010   0.001  -6.106
  0.699   0.003   0.007  -4.888   0.001   0.720   0.003   0.007
 -0.012   0.699  -0.009   0.001  -5.246  -0.013   0.720  -0.009
 -0.002  -0.001  -0.015  -0.001  -0.001  -0.002  -0.001  -0.015
 -0.003  -0.001  -0.026  -0.003  -0.002  -0.003  -0.001  -0.026
  0.000  -0.004   0.000   0.000  -0.001   0.000  -0.004   0.000
  0.000   0.000  -0.003   0.000   0.000   0.000   0.000  -0.002
 -0.001   0.000   0.000  -0.004   0.000  -0.001   0.000   0.000
  0.000  -0.005   0.000   0.000  -0.001   0.000  -0.005   0.000
  0.000   0.000  -0.004   0.001   0.000   0.000   0.000  -0.004
 -0.001   0.000  -0.000  -0.005   0.000  -0.001   0.000  -0.000
 total augmentation occupancy for first ion, spin component:           1
  6.431   0.009  -0.062  -1.905  -0.030  -5.109  -0.006   0.053   0.002   0.022  -0.036   0.013   0.003  -0.045   0.031  -0.001
  0.009   4.539   0.010   0.017  -1.924  -0.007  -4.042   0.002  -0.025   0.132   0.012  -0.003   0.042   0.020  -0.024  -0.014
 -0.062   0.010   7.053  -0.005  -0.030   0.056   0.004  -4.287   0.014   0.036   0.958  -0.244   0.021  -0.016   0.037  -0.002
 -1.905   0.017  -0.005   4.587   0.014   0.113  -0.025   0.011  -4.076  -0.007   0.029  -0.007  -0.024   0.036   0.013   0.006
 -0.030  -1.924  -0.030   0.014   6.499   0.022   0.020   0.035  -0.005  -5.143  -0.022   0.008   0.028  -0.027   0.004  -0.011
 -5.109  -0.007   0.056   0.113   0.022   5.355   0.005  -0.049   1.185  -0.014   0.038  -0.012   0.003   0.044  -0.046  -0.001
 -0.006  -4.042   0.004  -0.025   0.020   0.005   4.812  -0.013   0.035   1.164  -0.007   0.001  -0.074  -0.017   0.028   0.018
  0.053   0.002  -4.287   0.011   0.035  -0.049  -0.013   3.536  -0.019  -0.038  -0.913   0.229  -0.020   0.011  -0.036   0.003
  0.002  -0.025   0.014  -4.076  -0.005   1.185   0.035  -0.019   4.845   0.002  -0.020   0.004   0.027  -0.030  -0.040  -0.006
  0.022   0.132   0.036  -0.007  -5.143  -0.014   1.164  -0.038   0.002   5.360   0.024  -0.008  -0.050   0.026   0.002   0.012
 -0.036   0.012   0.958   0.029  -0.022   0.038  -0.007  -0.913  -0.020   0.024   2.820  -0.569   0.003  -0.045   0.005  -0.001
  0.013  -0.003  -0.244  -0.007   0.008  -0.012   0.001   0.229   0.004  -0.008  -0.569   0.148  -0.000   0.008  -0.000   0.000
  0.003   0.042   0.021  -0.024   0.028   0.003  -0.074  -0.020   0.027  -0.050   0.003  -0.000   0.519   0.001   0.004  -0.087
 -0.045   0.020  -0.016   0.036  -0.027   0.044  -0.017   0.011  -0.030   0.026  -0.045   0.008   0.001   0.407   0.000  -0.000
  0.031  -0.024   0.037   0.013   0.004  -0.046   0.028  -0.036  -0.040   0.002   0.005  -0.000   0.004   0.000   0.523  -0.001
 -0.001  -0.014  -0.002   0.006  -0.011  -0.001   0.018   0.003  -0.006   0.012  -0.001   0.000  -0.087  -0.000  -0.001   0.018
  0.008  -0.003   0.011  -0.006   0.005  -0.008   0.002  -0.005   0.004  -0.005   0.010  -0.003  -0.000  -0.064   0.000   0.000
 -0.012   0.006  -0.004  -0.007  -0.001   0.011  -0.006   0.005   0.011  -0.001  -0.001   0.000  -0.001   0.000  -0.088   0.000
 total augmentation occupancy for first ion, spin component:           2
  0.121   0.003  -0.050   0.087  -0.041  -0.072   0.000   0.032  -0.075   0.027  -0.002   0.001  -0.001  -0.000   0.003  -0.000
  0.003  -0.235   0.007   0.021   0.088  -0.007   0.153  -0.006  -0.013  -0.032   0.001  -0.000  -0.006   0.000   0.001   0.000
 -0.050   0.007   0.095   0.017  -0.024   0.036  -0.004  -0.079  -0.011   0.017   0.055   0.007   0.001  -0.005   0.002   0.000
  0.087   0.021   0.017  -0.202   0.003  -0.039  -0.013  -0.013   0.131  -0.007   0.002  -0.000   0.001   0.001  -0.005  -0.000
 -0.041   0.088  -0.024   0.003   0.178   0.027  -0.078   0.015  -0.000  -0.107   0.000   0.001   0.004  -0.000  -0.001  -0.000
 -0.072  -0.007   0.036  -0.039   0.027   0.045   0.003  -0.023   0.041  -0.018   0.002  -0.000   0.001   0.000  -0.002   0.000
  0.000   0.153  -0.004  -0.013  -0.078   0.003  -0.096   0.004   0.009   0.038  -0.000   0.000   0.003  -0.000  -0.001  -0.000
  0.032  -0.006  -0.079  -0.013   0.015  -0.023   0.004   0.067   0.008  -0.011  -0.042  -0.004  -0.001   0.004  -0.002   0.000
 -0.075  -0.013  -0.011   0.131  -0.000   0.041   0.009   0.008  -0.082   0.003  -0.001   0.000  -0.001  -0.000   0.002   0.000
  0.027  -0.032   0.017  -0.007  -0.107  -0.018   0.038  -0.011   0.003   0.068   0.000  -0.000  -0.003   0.000   0.001   0.000
 -0.002   0.001   0.055   0.002   0.000   0.002  -0.000  -0.042  -0.001   0.000   0.015   0.000  -0.000  -0.000  -0.000   0.000
  0.001  -0.000   0.007  -0.000   0.001  -0.000   0.000  -0.004   0.000  -0.000   0.000  -0.000   0.000  -0.000   0.000  -0.000
 -0.001  -0.006   0.001   0.001   0.004   0.001   0.003  -0.001  -0.001  -0.003  -0.000   0.000   0.005  -0.000   0.000  -0.000
 -0.000   0.000  -0.005   0.001  -0.000   0.000  -0.000   0.004  -0.000   0.000  -0.000  -0.000  -0.000  -0.001  -0.000  -0.000
  0.003   0.001   0.002  -0.005  -0.001  -0.002  -0.001  -0.002   0.002   0.001  -0.000   0.000   0.000  -0.000   0.006  -0.000
 -0.000   0.000   0.000  -0.000  -0.000   0.000  -0.000   0.000   0.000   0.000   0.000  -0.000  -0.000  -0.000  -0.000  -0.000
 -0.000   0.000   0.000   0.000  -0.000   0.000   0.000  -0.000   0.000   0.000  -0.000   0.000  -0.000   0.000   0.000   0.000
 -0.000  -0.000   0.000   0.000  -0.000   0.000   0.000   0.000  -0.000   0.000   0.000  -0.000  -0.000  -0.000  -0.000   0.000


------------------------ aborting loop because EDIFF is reached ----------------------------------------


    CHARGE:  cpu time    0.3302: real time    0.3322
    FORLOC:  cpu time    0.0026: real time    0.0026
    FORNL :  cpu time    1.7766: real time    1.7880
    STRESS:  cpu time    5.3891: real time    5.4196
    FORCOR:  cpu time    0.0266: real time    0.0267
    FORHAR:  cpu time    0.0050: real time    0.0050
    MIXING:  cpu time    0.0050: real time    0.0050
    OFIELD:  cpu time    0.0000: real time    0.0000

 ---------------------------------------------------------------------------------------------

         DFTD3 V3.0 Rev 1        
 IVDW         = 12
 DF pbe       
 parameters
 VDW_S6       =    1.0000
 VDW_S8       =    0.7875
 VDW_A1       =    0.4289
 VDW_A2       =    4.4407
 k1-k3        =   16.0000    1.3333   -4.0000
 VDW_RADIUS   =   50.2022 A
 VDW_CNRADIUS =   21.1671 A
 Edisp (eV)   -6.47059

 E6    (eV) :    -4.1765
 E8    (eV) :    -2.2940
 % E8        : 35.45
    FORVDW:  cpu time    0.2867: real time    0.2885

  FORCE on cell =-STRESS in cart. coord.  units (eV):
  Direction    XX          YY          ZZ          XY          YZ          ZX
  --------------------------------------------------------------------------------------
  Alpha Z   757.16468   757.16468   757.16468
  Ewald   -1480.40590 -1483.82932-10945.28073    -3.26729    10.52015    39.55582
  Hartree  4571.80038  4569.56727 -2220.54021    -0.18485     0.54772    23.84149
  E(xc)   -1274.79515 -1274.86203 -1275.69457     0.10537     0.08180     0.04919
  Local   -8046.34227 -8044.73216  8171.09342     6.39824    -7.65239   -62.61739
  n-local  -577.79042  -579.39107  -585.65671     0.69112     0.78289     0.18083
  augment  2019.63305  2023.22392  1984.64085    -3.06061    -1.92753    -0.46395
  Kinetic  4037.90769  4038.94301  4121.12027    -0.75172    -2.29044    -0.46669
  Fock        0.00000     0.00000     0.00000     0.00000     0.00000     0.00000
  vdW        -6.75990    -6.74009    -6.84089    -0.01433    -0.00147    -0.00141
  -------------------------------------------------------------------------------------
  Total       0.41216    -0.65577     0.00611    -0.08408     0.06072     0.07789
  in kB       1.73758    -2.76461     0.02576    -0.35448     0.25598     0.32836
  external pressure =       -0.33 kB  Pullay stress =        0.00 kB


 VOLUME and BASIS-vectors are now :
 -----------------------------------------------------------------------------
  energy-cutoff  :      600.00
  volume of cell :      380.04
      direct lattice vectors                 reciprocal lattice vectors
     5.593301635 -0.006178452  0.014951933     0.178902116  0.103136742 -0.001088468
    -2.805742960  4.866734194 -0.013088196     0.000228628  0.205606888 -0.000565333
     0.062892998  0.038342529 13.970286326    -0.000191259  0.000082241  0.071581130

  length of vectors
     5.593325032  5.617603277 13.970480511     0.206505059  0.205607792  0.071581432


 FORCES acting on ions
    electron-ion (+dipol)            ewald-force                    non-local-force                 convergence-correction
 -----------------------------------------------------------------------------------------------
   -.492E+01 -.285E+01 -.790E+02   0.524E+01 0.304E+01 0.778E+02   -.312E+00 -.193E+00 0.743E+00   -.519E-02 0.219E-02 0.492E+00
   -.415E+01 0.322E+01 -.411E+02   0.434E+01 -.337E+01 0.416E+02   -.233E+00 0.140E+00 -.324E+00   0.336E-03 -.279E-02 -.235E+00
   -.579E+01 0.484E+01 0.683E+02   0.599E+01 -.504E+01 -.675E+02   -.234E+00 0.141E+00 -.443E+00   0.258E-02 -.269E-02 -.219E+00
   -.417E+01 -.253E+01 -.739E+02   0.437E+01 0.265E+01 0.729E+02   -.217E+00 -.137E+00 0.501E+00   -.781E-03 -.297E-02 0.492E+00
   0.307E+00 -.526E+01 -.394E+02   -.377E+00 0.554E+01 0.399E+02   0.267E-01 -.278E+00 -.457E+00   -.779E-03 -.173E-02 -.235E+00
   -.103E+01 -.781E+01 0.734E+02   0.108E+01 0.802E+01 -.729E+02   -.339E-01 -.242E+00 -.309E+00   -.103E-02 0.196E-02 -.228E+00
   0.607E+01 0.129E+01 -.295E+02   -.626E+01 -.137E+01 0.283E+02   0.174E+00 0.923E-01 0.650E+00   0.240E-02 0.149E-02 0.493E+00
   0.352E+01 0.215E+01 -.374E+02   -.385E+01 -.231E+01 0.382E+02   0.316E+00 0.151E+00 -.630E+00   0.189E-02 0.654E-03 -.233E+00
   0.561E+01 0.497E+01 0.711E+02   -.579E+01 -.513E+01 -.706E+02   0.193E+00 0.163E+00 -.341E+00   -.875E-03 -.496E-03 -.225E+00
   0.448E+01 0.425E+01 -.296E+02   -.466E+01 -.435E+01 0.284E+02   0.167E+00 0.104E+00 0.672E+00   -.180E-02 0.141E-02 0.486E+00
   -.103E-01 -.311E+00 0.332E+01   -.259E-01 0.256E+00 -.300E+01   -.783E-02 0.111E+00 -.715E-01   0.106E-02 -.360E-03 -.213E+00
   0.137E+01 -.135E+01 0.117E+03   -.143E+01 0.139E+01 -.116E+03   0.136E-01 -.708E-03 -.686E-01   0.271E-02 -.129E-03 -.250E+00
   0.838E+01 -.141E+01 0.285E+03   -.103E+02 0.164E+01 -.312E+03   0.191E+01 -.232E+00 0.262E+02   -.687E-05 -.153E-03 0.331E+00
   -.105E+02 -.110E+02 -.359E+03   0.125E+02 0.129E+02 0.377E+03   -.202E+01 -.196E+01 -.183E+02   -.334E-03 0.123E-02 0.322E+00
   -.143E+02 -.651E+01 0.314E+03   0.159E+02 0.786E+01 -.335E+03   -.105E+01 -.147E+01 0.214E+02   -.187E+00 0.123E+00 0.197E+00
   -.176E+02 0.266E+01 -.337E+03   0.215E+02 -.425E+01 0.359E+03   -.386E+01 0.180E+01 -.217E+02   0.394E-01 -.143E-01 -.420E+00
   0.358E+01 0.122E+02 0.381E+03   -.410E+01 -.145E+02 -.403E+03   0.424E+00 0.225E+01 0.224E+02   -.387E-01 0.265E-02 -.520E+00
   0.347E+01 -.121E+01 -.278E+03   -.357E+01 0.143E+01 0.304E+03   0.608E-02 -.217E+00 -.264E+02   -.385E-01 0.104E-01 0.208E+00
   0.217E+01 0.894E+01 0.285E+03   -.276E+01 -.109E+02 -.312E+03   0.576E+00 0.199E+01 0.262E+02   -.188E-02 0.494E-03 0.328E+00
   -.138E+02 -.562E+01 -.359E+03   0.164E+02 0.648E+01 0.377E+03   -.259E+01 -.868E+00 -.183E+02   -.213E-02 -.141E-02 0.345E+00
   -.175E+02 -.957E+01 0.310E+03   0.205E+02 0.108E+02 -.332E+03   -.308E+01 -.831E+00 0.215E+02   0.398E-01 -.196E+00 0.201E+00
   -.625E+01 -.191E+02 -.337E+03   0.620E+01 0.231E+02 0.358E+03   0.710E+00 -.391E+01 -.211E+02   -.190E+00 -.708E-01 -.499E+00
   0.703E+01 -.248E+01 0.384E+03   -.839E+01 0.313E+01 -.407E+03   0.135E+01 -.662E+00 0.238E+02   0.125E-01 -.200E-01 -.532E+00
   0.147E+01 -.676E+00 -.272E+03   -.203E+01 0.747E+00 0.298E+03   0.563E+00 -.274E-01 -.269E+02   0.839E-02 -.210E-01 0.212E+00
   -.983E+01 -.482E+01 0.290E+03   0.119E+02 0.581E+01 -.316E+03   -.206E+01 -.980E+00 0.257E+02   -.164E-02 0.124E-02 0.327E+00
   0.109E+02 0.512E+01 -.368E+03   -.127E+02 -.598E+01 0.390E+03   0.180E+01 0.859E+00 -.223E+02   -.152E-02 0.309E-02 0.328E+00
   0.148E+02 0.134E+02 0.300E+03   -.163E+02 -.158E+02 -.317E+03   0.990E+00 0.231E+01 0.172E+02   0.179E+00 0.720E-01 0.218E+00
   0.181E+02 0.100E+02 -.344E+03   -.216E+02 -.115E+02 0.366E+03   0.351E+01 0.103E+01 -.216E+02   -.402E-01 0.198E+00 -.508E+00
   -.498E+01 0.236E+01 0.388E+03   0.519E+01 -.251E+01 -.414E+03   -.112E+00 0.146E+00 0.261E+02   0.400E-01 -.119E-01 -.512E+00
   -.316E+01 -.272E+01 -.271E+03   0.343E+01 0.368E+01 0.298E+03   -.110E+00 -.956E+00 -.268E+02   0.390E-01 0.163E-02 0.206E+00
   -.272E+01 -.451E+00 0.291E+03   0.332E+01 0.577E+00 -.318E+03   -.586E+00 -.123E+00 0.264E+02   0.518E-03 -.368E-03 0.329E+00
   0.151E+02 0.733E+01 -.365E+03   -.178E+02 -.884E+01 0.386E+03   0.276E+01 0.153E+01 -.214E+02   0.936E-03 -.171E-02 0.324E+00
   0.174E+02 0.734E+01 0.299E+03   -.208E+02 -.794E+01 -.317E+03   0.336E+01 0.395E+00 0.177E+02   -.367E-01 0.163E-01 0.123E+00
   0.710E+01 0.160E+01 -.349E+03   -.723E+01 -.213E+01 0.375E+03   -.391E+00 0.627E+00 -.252E+02   0.200E+00 -.123E+00 -.487E+00
   -.923E+01 -.534E+01 0.383E+03   0.108E+02 0.643E+01 -.405E+03   -.156E+01 -.116E+01 0.225E+02   -.132E-01 0.202E-01 -.529E+00
   -.114E+01 -.389E+00 -.269E+03   0.185E+01 0.423E-01 0.296E+03   -.695E+00 0.363E+00 -.267E+02   -.772E-02 0.183E-01 0.195E+00
   -.516E+00 -.442E+00 -.349E+01   0.464E+00 0.342E+00 0.348E+01   0.155E+00 0.105E+00 -.299E-01   0.426E-02 -.296E-02 0.463E-01
   0.292E-01 0.396E-01 -.321E+00   -.824E-01 -.182E-01 0.536E+00   0.468E-01 0.325E-01 -.296E+00   -.123E-02 0.513E-02 0.468E-01
   0.118E+01 -.493E-01 -.383E+01   -.101E+01 0.104E+00 0.344E+01   -.302E+00 -.425E-01 0.456E+00   -.519E-02 0.311E-02 -.909E-01
 -----------------------------------------------------------------------------------------------
   0.380E+00 -.663E-01 -.644E+00   0.261E-12 0.153E-12 -.382E-12   -.413E+00 0.354E-01 0.309E+00   -.147E-02 0.925E-02 0.315E+00
 
 
 POSITION                                       TOTAL-FORCE (eV/Angst)
 -----------------------------------------------------------------------------------
      0.05299      1.56666      2.26409         0.007543     -0.001345      0.012041
     -2.71333      4.83637      6.99105        -0.031151     -0.014683     -0.026649
      1.44774      0.96336     11.76610        -0.032490     -0.055429      0.070578
     -1.34982      3.99992      2.24003        -0.017143     -0.020547      0.019855
     -1.31268      2.40661      6.99582        -0.042947      0.008506     -0.141380
      0.04026      3.39521     11.75353         0.018996     -0.017542     -0.021426
      2.84756      1.56085      2.20048        -0.009512      0.010424      0.022394
      0.07975      4.83376      6.99207        -0.013269     -0.007377     -0.018842
      4.24212      0.95933     11.77152         0.012020      0.001261     -0.049949
      1.44485      3.99499      2.19390        -0.011859     -0.000085      0.026184
      1.48356      2.40021      6.95027        -0.042277      0.055648      0.025359
      2.84216      3.39044     11.70589        -0.034351      0.034847      0.006105
      1.44773      0.73641      1.31435         0.000186     -0.001782     -0.013696
      2.81191      4.77385      3.25215        -0.020978     -0.003475     -0.001166
      0.05903      1.57133      6.00036         0.311275      0.004791      0.058357
      1.46649      0.80208      7.94909         0.092325      0.189154      0.051112
      0.06399      0.18111     10.77110        -0.134933     -0.018807     -0.022207
      0.05481      1.77511     12.68687        -0.135266      0.014035      0.027887
      0.03386      3.18711      1.30842        -0.012265      0.005739     -0.012372
      4.19923      2.36517      3.25866         0.001557     -0.006052     -0.004922
     -1.33450      4.01135      6.01225        -0.038419      0.160969      0.035035
      0.08944      3.18997      7.94104         0.471277     -0.010889      0.050878
     -1.32928      2.56822     10.75381        -0.001196     -0.030420      0.092267
     -1.37699      4.18909     12.66872         0.011792      0.022796     -0.030082
      4.24996      0.74882      1.30542        -0.001902      0.008037     -0.012591
      0.06699      4.82273      3.20047         0.013010     -0.001228     -0.011215
      2.92222      1.59346      5.97956        -0.392471     -0.004060      0.017256
      4.30347      0.79281      7.97852         0.054722     -0.178084     -0.061948
      2.83572      0.15104     10.81988         0.135665     -0.019593     -0.018328
      2.83059      1.79162     12.67828         0.197038      0.005609      0.045112
      2.86478      3.19252      1.28064         0.015728      0.003141     -0.016270
      1.48833      2.40049      3.20534         0.001944      0.015264     -0.010413
      1.50795      4.04784      5.97337        -0.044013     -0.182519      0.038687
      2.86944      3.20573      7.92732        -0.325300     -0.026082      0.018643
      1.42062      2.57399     10.76563         0.021669     -0.052328      0.006340
      1.45453      4.19456     12.67624         0.010905      0.034970     -0.088590
      2.81245      3.16422      4.63392         0.107200      0.001994      0.002531
      4.25551      0.75433      4.66199        -0.006180      0.059966     -0.029494
      0.19889      1.67652      9.28542        -0.136929      0.015176     -0.035082
 -----------------------------------------------------------------------------------
    total drift:                               -0.034344     -0.021722     -0.020206


--------------------------------------------------------------------------------------------------------



  FREE ENERGIE OF THE ION-ELECTRON SYSTEM (eV)
  ---------------------------------------------------
  free  energy   TOTEN  =      -228.54444247 eV

  energy  without entropy=     -228.53957334  energy(sigma->0) =     -228.54200791
 


--------------------------------------------------------------------------------------------------------


    POTLOK:  cpu time    0.0968: real time    0.0972


--------------------------------------------------------------------------------------------------------


 stress matrix after NEB project (eV)
      0.41216     -0.08408      0.07789
     -0.08408     -0.65577      0.06072
      0.07789      0.06072      0.00611
  FORCES: max atom, RMS     0.474140    0.155716
  FORCE total and by dimension    0.972443    0.471277
  Stress total and by dimension    0.795990    0.655774


--------------------------------------------------------------------------------------------------------


    WAVPRE:  cpu time    0.0048: real time    0.0050
 FEWALD executed in parallel
    FEWALD:  cpu time    0.0008: real time    0.0008
    GENKIN:  cpu time    0.0164: real time    0.0165

 real space projection operators:
  total allocation   :       7073.29 KBytes
  max/ min on nodes  :        990.02        773.47

    ORTHCH:  cpu time    1.1351: real time    1.1416
     LOOP+:  cpu time 1764.3833: real time 1793.0638