 vasp.5.4.1 05Feb16 (build Apr 23 2022 14:15:44) complex                        
  
 executed on           IFC91_ompi date 2024.09.20  11:51:44
 running on   64 total cores
 distrk:  each k-point on   64 cores,    1 groups
 distr:  one band on NCORES_PER_BAND=   8 cores,    8 groups


--------------------------------------------------------------------------------------------------------


 INCAR:
 POTCAR:    PAW_PBE Ti 08Apr2002                  
 POTCAR:    PAW_PBE O 08Apr2002                   
 POTCAR:    PAW_PBE Li 17Jan2003                  
 POTCAR:    PAW_PBE Ti 08Apr2002                  
   VRHFIN =Ti: d3 s1                                                            
   LEXCH  = PE                                                                  
   EATOM  =    94.7928 eV,    6.9671 Ry                                         
                                                                                
   TITEL  = PAW_PBE Ti 08Apr2002                                                
   LULTRA =        F    use ultrasoft PP ?                                      
   IUNSCR =        1    unscreen: 0-lin 1-nonlin 2-no                           
   RPACOR =    2.200    partial core radius                                     
   POMASS =   47.880; ZVAL   =    4.000    mass and valenz                      
   RCORE  =    2.800    outmost cutoff radius                                   
   RWIGS  =    2.500; RWIGS  =    1.323    wigner-seitz radius (au A)           
   ENMAX  =  178.330; ENMIN  =  133.747 eV                                      
   RCLOC  =    2.215    cutoff for local pot                                    
   LCOR   =        T    correct aug charges                                     
   LPAW   =        T    paw PP                                                  
   EAUG   =  328.883                                                            
   DEXC   =    0.000                                                            
   RMAX   =    2.868    core radius for proj-oper                               
   RAUG   =    1.300    factor for augmentation sphere                          
   RDEP   =    2.885    radius for radial grids                                 
   RDEPT  =    2.320    core radius for aug-charge                              
                                                                                
   Atomic configuration                                                         
    9 entries                                                                   
     n  l   j            E        occ.                                          
     1  0  0.50     -4865.3608   2.0000                                         
     2  0  0.50      -533.1367   2.0000                                         
     2  1  1.50      -440.5031   6.0000                                         
     3  0  0.50       -59.3186   2.0000                                         
     3  1  1.50       -35.7012   6.0000                                         
     3  2  2.50        -1.9157   3.0000                                         
     4  0  0.50        -3.7291   1.0000                                         
     4  1  1.50        -4.0817   0.0000                                         
     4  3  2.50        -1.3606   0.0000                                         
   Description                                                                  
     l       E           TYP  RCUT    TYP  RCUT                                 
     2     -1.9156924     23  2.800                                             
     2     -0.4062961     23  2.800                                             
     0     -3.7290832     23  2.800                                             
     0     20.4087390     23  2.800                                             
     1     -5.4423304     23  2.800                                             
  local pseudopotential read in
  partial core-charges read in
  partial kinetic energy density read in
  atomic valenz-charges read in
  non local Contribution for L=           2  read in
    real space projection operators read in
  non local Contribution for L=           2  read in
    real space projection operators read in
  non local Contribution for L=           0  read in
    real space projection operators read in
  non local Contribution for L=           0  read in
    real space projection operators read in
  non local Contribution for L=           1  read in
    real space projection operators read in
    PAW grid and wavefunctions read in
 
   number of l-projection  operators is LMAX  =           5
   number of lm-projection operators is LMMAX =          15
 
 POTCAR:    PAW_PBE O 08Apr2002                   
   VRHFIN =O: s2p4                                                              
   LEXCH  = PE                                                                  
   EATOM  =   432.3788 eV,   31.7789 Ry                                         
                                                                                
   TITEL  = PAW_PBE O 08Apr2002                                                 
   LULTRA =        F    use ultrasoft PP ?                                      
   IUNSCR =        1    unscreen: 0-lin 1-nonlin 2-no                           
   RPACOR =    1.200    partial core radius                                     
   POMASS =   16.000; ZVAL   =    6.000    mass and valenz                      
   RCORE  =    1.520    outmost cutoff radius                                   
   RWIGS  =    1.550; RWIGS  =    0.820    wigner-seitz radius (au A)           
   ENMAX  =  400.000; ENMIN  =  300.000 eV                                      
   ICORE  =        2    local potential                                         
   LCOR   =        T    correct aug charges                                     
   LPAW   =        T    paw PP                                                  
   EAUG   =  605.392                                                            
   DEXC   =    0.000                                                            
   RMAX   =    1.553    core radius for proj-oper                               
   RAUG   =    1.300    factor for augmentation sphere                          
   RDEP   =    1.550    radius for radial grids                                 
   RDEPT  =    1.329    core radius for aug-charge                              
                                                                                
   Atomic configuration                                                         
    4 entries                                                                   
     n  l   j            E        occ.                                          
     1  0  0.50      -514.6923   2.0000                                         
     2  0  0.50       -23.9615   2.0000                                         
     2  1  0.50        -9.0305   4.0000                                         
     3  2  1.50        -9.5241   0.0000                                         
   Description                                                                  
     l       E           TYP  RCUT    TYP  RCUT                                 
     0    -23.9615318     23  1.200                                             
     0     -9.5240782     23  1.200                                             
     1     -9.0304911     23  1.520                                             
     1      8.1634956     23  1.520                                             
     2     -9.5240782      7  1.500                                             
  local pseudopotential read in
  partial core-charges read in
  partial kinetic energy density read in
  kinetic energy density of atom read in
  atomic valenz-charges read in
  non local Contribution for L=           0  read in
    real space projection operators read in
  non local Contribution for L=           0  read in
    real space projection operators read in
  non local Contribution for L=           1  read in
    real space projection operators read in
  non local Contribution for L=           1  read in
    real space projection operators read in
    PAW grid and wavefunctions read in
 
   number of l-projection  operators is LMAX  =           4
   number of lm-projection operators is LMMAX =           8
 
 POTCAR:    PAW_PBE Li 17Jan2003                  
   VRHFIN =Li: s1p0                                                             
   LEXCH  = PE                                                                  
   EATOM  =     5.3001 eV,    0.3895 Ry                                         
                                                                                
   TITEL  = PAW_PBE Li 17Jan2003                                                
   LULTRA =        F    use ultrasoft PP ?                                      
   IUNSCR =        1    unscreen: 0-lin 1-nonlin 2-no                           
   RPACOR =    1.500    partial core radius                                     
   POMASS =    7.010; ZVAL   =    1.000    mass and valenz                      
   RCORE  =    2.050    outmost cutoff radius                                   
   RWIGS  =    2.600; RWIGS  =    1.376    wigner-seitz radius (au A)           
   ENMAX  =  140.000; ENMIN  =  100.000 eV                                      
   ICORE  =        2    local potential                                         
   LCOR   =        T    correct aug charges                                     
   LPAW   =        T    paw PP                                                  
   EAUG   =  331.638                                                            
   DEXC   =    0.000                                                            
   RMAX   =    2.098    core radius for proj-oper                               
   RAUG   =    1.300    factor for augmentation sphere                          
   RDEP   =    2.094    radius for radial grids                                 
   RDEPT  =    1.810    core radius for aug-charge                              
                                                                                
   Atomic configuration                                                         
    4 entries                                                                   
     n  l   j            E        occ.                                          
     1  0  0.50       -51.8549   2.0000                                         
     2  0  0.50        -2.8742   1.0000                                         
     2  1  0.50        -1.3606   0.0000                                         
     3  2  1.50        -1.3606   0.0000                                         
   Description                                                                  
     l       E           TYP  RCUT    TYP  RCUT                                 
     0     -2.8742052     23  2.050                                             
     0     27.2116520     23  2.050                                             
     1     -1.3605826     23  2.050                                             
     2     -1.3605826     23  2.050                                             
  local pseudopotential read in
  partial core-charges read in
  partial kinetic energy density read in
  atomic valenz-charges read in
  non local Contribution for L=           0  read in
    real space projection operators read in
  non local Contribution for L=           0  read in
    real space projection operators read in
  non local Contribution for L=           1  read in
    real space projection operators read in
    PAW grid and wavefunctions read in
 
   number of l-projection  operators is LMAX  =           3
   number of lm-projection operators is LMMAX =           5
 
 Optimization of the real space projectors (new method)

 maximal supplied QI-value         = 13.42
 optimisation between [QCUT,QGAM] = [ 12.48, 31.26] = [ 43.60,273.67] Ry 
 Optimized for a Real-space Cutoff    1.49 Angstroem

   l    n(q)    QCUT    max X(q) W(low)/X(q) W(high)/X(q)  e(spline) 
   2     13    12.478    49.363    0.25E-03    0.59E-04    0.77E-05
   2     13    12.478    47.669    0.25E-03    0.57E-04    0.77E-05
   0     14    12.478    26.374    0.23E-03    0.23E-04    0.53E-04
   0     14    12.478    11.549    0.18E-03    0.19E-04    0.41E-04
   1     14    12.478     9.492    0.63E-04    0.62E-04    0.42E-04
 Optimization of the real space projectors (new method)

 maximal supplied QI-value         = 24.76
 optimisation between [QCUT,QGAM] = [ 12.38, 31.19] = [ 42.90,272.45] Ry 
 Optimized for a Real-space Cutoff    0.88 Angstroem

   l    n(q)    QCUT    max X(q) W(low)/X(q) W(high)/X(q)  e(spline) 
   0      8    12.378    20.381    0.23E-03    0.15E-03    0.14E-06
   0      8    12.378    15.268    0.25E-03    0.16E-03    0.15E-06
   1      8    12.378     5.964    0.24E-03    0.11E-03    0.16E-06
   1      8    12.378     5.382    0.21E-03    0.84E-04    0.13E-06
 Optimization of the real space projectors (new method)

 maximal supplied QI-value         = 18.33
 optimisation between [QCUT,QGAM] = [ 12.46, 31.34] = [ 43.51,275.13] Ry 
 Optimized for a Real-space Cutoff    1.08 Angstroem

   l    n(q)    QCUT    max X(q) W(low)/X(q) W(high)/X(q)  e(spline) 
   0     10    12.465    33.825    0.30E-03    0.25E-03    0.10E-05
   0     10    12.465     8.944    0.22E-03    0.19E-03    0.75E-06
   1     10    12.465     4.214    0.34E-03    0.17E-03    0.14E-05
  PAW_PBE Ti 08Apr2002                  :
 energy of atom  1       EATOM=  -94.7928
 kinetic energy error for atom=    0.0001 (will be added to EATOM!!)
  PAW_PBE O 08Apr2002                   :
 energy of atom  2       EATOM= -432.3788
 kinetic energy error for atom=    0.0168 (will be added to EATOM!!)
  PAW_PBE Li 17Jan2003                  :
 energy of atom  3       EATOM=   -5.3001
 kinetic energy error for atom=    0.0000 (will be added to EATOM!!)
 
 
 POSCAR: Ti  O Li                                
  positions in cartesian coordinates
  No initial velocities read in
 exchange correlation table for  LEXCH =        8
   RHO(1)=    0.500       N(1)  =     2000
   RHO(2)=  100.500       N(2)  =     4000

 VTST: version 3.1, (03/28/14)

 CHAIN: initializing optimizer
 
 OPT: Using VASP Dynamics algorithm
 CHAIN: Read ICHAIN            0
 
 POSCAR: Ti  O Li                                
  positions in cartesian coordinates
  No initial velocities read in
 


--------------------------------------------------------------------------------------------------------


 ion  position               nearest neighbor table
   1  0.498  0.499  0.498-   5 1.97   7 1.97   7 1.97   5 1.97   6 2.04  12 2.05   4 3.02   4 3.02
                             2 3.03   2 3.03
   2  0.499  0.999  0.741-   7 1.96   6 1.96   6 1.96   8 1.98   8 1.98   9 2.06   1 3.03   1 3.03
                             3 3.13   3 3.13  13 3.15  13 3.15
   3  0.999  1.000  0.998-   9 1.98   9 1.98  11 1.98  11 1.98   8 2.05  10 2.05  13 2.74  13 2.74
                            13 2.74  13 2.74   2 3.13   2 3.13   4 3.14   4 3.14
   4  0.998  0.500  0.256-   5 1.96  12 1.96  12 1.96  10 1.98  10 1.98  11 2.06   1 3.02   1 3.02
                            13 3.12  13 3.12   3 3.14   3 3.14
   5  0.998  0.499  0.461-   4 1.96   1 1.97   1 1.97
   6  0.499  0.499  0.712-   2 1.96   2 1.96   1 2.04
   7  0.498  0.999  0.536-   2 1.96   1 1.97   1 1.97
   8  0.999  0.999  0.784-   2 1.98   2 1.98   3 2.05
   9  0.499  0.999  0.956-   3 1.98   3 1.98  13 1.99  13 1.99   2 2.06
  10  0.998  1.000  0.213-   4 1.98   4 1.98   3 2.05
  11  0.999  0.500  0.041-  13 1.98  13 1.98   3 1.98   3 1.98   4 2.06
  12  0.498  0.500  0.284-   4 1.96   4 1.96   1 2.05
  13  0.499  0.500  0.000-  11 1.98  11 1.98   9 1.99   9 1.99   3 2.74   3 2.74   3 2.74   3 2.74
                             4 3.12   4 3.12   2 3.15   2 3.15
 
  LATTYP: Found a simple tetragonal cell.
 ALAT       =     3.8815713593
 C/A-ratio  =     2.4640988977
  
  Lattice vectors:
  
 A1 = (   3.8815713593,   0.0000000000,   0.0000000000)
 A2 = (   0.0000000000,   3.8815713593,   0.0000000000)
 A3 = (   0.0000000000,   0.0000000000,   9.5645757076)


Analysis of symmetry for initial positions (statically):
=====================================================================
 Subroutine PRICEL returns:
 Original cell was already a primitive cell.
 

 Routine SETGRP: Setting up the symmetry group for a 
 simple tetragonal supercell.


 Subroutine GETGRP returns: Found  1 space group operations
 (whereof  1 operations were pure point group operations)
 out of a pool of 16 trial point group operations.


The static configuration has the point symmetry C_1 .


Analysis of symmetry for dynamics (positions and initial velocities):
=====================================================================
 Subroutine PRICEL returns:
 Original cell was already a primitive cell.
 

 Routine SETGRP: Setting up the symmetry group for a 
 simple tetragonal supercell.


 Subroutine GETGRP returns: Found  1 space group operations
 (whereof  1 operations were pure point group operations)
 out of a pool of 16 trial point group operations.


The dynamic configuration has the point symmetry C_1 .


Analysis of structural, dynamic, and magnetic symmetry:
=====================================================================
 Subroutine PRICEL returns:
 Original cell was already a primitive cell.
 

 Routine SETGRP: Setting up the symmetry group for a 
 simple tetragonal supercell.


 Subroutine GETGRP returns: Found  1 space group operations
 (whereof  1 operations were pure point group operations)
 out of a pool of 16 trial point group operations.


The magnetic configuration has the point symmetry C_1 .


 Subroutine INISYM returns: Found  1 space group operations
 (whereof  1 operations are pure point group operations),
 and found     1 'primitive' translations

 
 
 KPOINTS: KPOINTS created by Atomic Simulation Env

Automatic generation of k-mesh.
Space group operators:
 irot       det(A)        alpha          n_x          n_y          n_z        tau_x        tau_y        tau_z
    1     1.000000     0.000001     1.000000     0.000000     0.000000     0.000000     0.000000     0.000000
 
 Subroutine IBZKPT returns following result:
 ===========================================
 
 Found     40 irreducible k-points:
 
 Following reciprocal coordinates:
            Coordinates               Weight
  0.000000  0.000000  0.000000      1.000000
  0.166667  0.000000  0.000000      2.000000
  0.333333  0.000000  0.000000      2.000000
  0.500000  0.000000  0.000000      1.000000
  0.000000  0.166667  0.000000      2.000000
  0.166667  0.166667  0.000000      2.000000
  0.333333  0.166667  0.000000      2.000000
  0.500000  0.166667  0.000000      2.000000
 -0.333333  0.166667  0.000000      2.000000
 -0.166667  0.166667  0.000000      2.000000
  0.000000  0.333333  0.000000      2.000000
  0.166667  0.333333  0.000000      2.000000
  0.333333  0.333333  0.000000      2.000000
  0.500000  0.333333  0.000000      2.000000
 -0.333333  0.333333  0.000000      2.000000
 -0.166667  0.333333  0.000000      2.000000
  0.000000  0.500000  0.000000      1.000000
  0.166667  0.500000  0.000000      2.000000
  0.333333  0.500000  0.000000      2.000000
  0.500000  0.500000  0.000000      1.000000
 -0.000000  0.000000  0.500000      1.000000
  0.166667 -0.000000  0.500000      2.000000
  0.333333 -0.000000  0.500000      2.000000
  0.500000  0.000000  0.500000      1.000000
 -0.000000  0.166667  0.500000      2.000000
  0.166667  0.166667  0.500000      2.000000
  0.333333  0.166667  0.500000      2.000000
  0.500000  0.166667  0.500000      2.000000
 -0.333333  0.166667  0.500000      2.000000
 -0.166667  0.166667  0.500000      2.000000
 -0.000000  0.333333  0.500000      2.000000
  0.166667  0.333333  0.500000      2.000000
  0.333333  0.333333  0.500000      2.000000
  0.500000  0.333333  0.500000      2.000000
 -0.333333  0.333333  0.500000      2.000000
 -0.166667  0.333333  0.500000      2.000000
 -0.000000  0.500000  0.500000      1.000000
  0.166667  0.500000  0.500000      2.000000
  0.333333  0.500000  0.500000      2.000000
  0.500000  0.500000  0.500000      1.000000
 
 Following cartesian coordinates:
            Coordinates               Weight
  0.000000  0.000000  0.000000      1.000000
  0.042938 -0.000000  0.000000      2.000000
  0.085876 -0.000000  0.000000      2.000000
  0.128814 -0.000000  0.000000      1.000000
  0.000000  0.042938  0.000000      2.000000
  0.042938  0.042938  0.000000      2.000000
  0.085876  0.042938  0.000000      2.000000
  0.128814  0.042938  0.000000      2.000000
 -0.085876  0.042938  0.000000      2.000000
 -0.042938  0.042938  0.000000      2.000000
  0.000000  0.085876  0.000000      2.000000
  0.042938  0.085876  0.000000      2.000000
  0.085876  0.085876  0.000000      2.000000
  0.128814  0.085876  0.000000      2.000000
 -0.085876  0.085876  0.000000      2.000000
 -0.042938  0.085876  0.000000      2.000000
  0.000000  0.128814  0.000000      1.000000
  0.042938  0.128814  0.000000      2.000000
  0.085876  0.128814  0.000000      2.000000
  0.128814  0.128814  0.000000      1.000000
 -0.000000 -0.000000  0.052276      1.000000
  0.042938 -0.000000  0.052276      2.000000
  0.085876 -0.000000  0.052276      2.000000
  0.128814 -0.000000  0.052276      1.000000
 -0.000000  0.042938  0.052276      2.000000
  0.042938  0.042938  0.052276      2.000000
  0.085876  0.042938  0.052276      2.000000
  0.128814  0.042938  0.052276      2.000000
 -0.085876  0.042938  0.052276      2.000000
 -0.042938  0.042938  0.052276      2.000000
 -0.000000  0.085876  0.052276      2.000000
  0.042938  0.085876  0.052276      2.000000
  0.085876  0.085876  0.052276      2.000000
  0.128814  0.085876  0.052276      2.000000
 -0.085876  0.085876  0.052276      2.000000
 -0.042938  0.085876  0.052276      2.000000
 -0.000000  0.128814  0.052276      1.000000
  0.042938  0.128814  0.052276      2.000000
  0.085876  0.128814  0.052276      2.000000
  0.128814  0.128814  0.052276      1.000000
 


--------------------------------------------------------------------------------------------------------




 Dimension of arrays:
   k-points           NKPTS =     40   k-points in BZ     NKDIM =     40   number of bands    NBANDS=     48
   number of dos      NEDOS =    301   number of ions     NIONS =     13
   non local maximal  LDIM  =      5   non local SUM 2l+1 LMDIM =     15
   total plane-waves  NPLWV =  81920
   max r-space proj   IRMAX =   7934   max aug-charges    IRDMAX=  11611
   dimension x,y,z NGX =    32 NGY =   32 NGZ =   80
   dimension x,y,z NGXF=    42 NGYF=   42 NGZF=  108
   support grid    NGXF=    42 NGYF=   42 NGZF=  108
   ions per type =               4   8   1
 NGX,Y,Z   is equivalent  to a cutoff of  13.71, 13.71, 13.91 a.u.
 NGXF,Y,Z  is equivalent  to a cutoff of  17.99, 17.99, 18.77 a.u.


 I would recommend the setting:
   dimension x,y,z NGX =    31 NGY =   31 NGZ =   76
 SYSTEM =  unknown system                          
 POSCAR =  Ti  O Li                                

 Startparameter for this run:
   NWRITE =      2    write-flag & timer
   PREC   = high      normal or accurate (medium, high low for compatibility)
   ISTART =      0    job   : 0-new  1-cont  2-samecut
   ICHARG =      2    charge: 1-file 2-atom 10-const
   ISPIN  =      2    spin polarized calculation?
   LNONCOLLINEAR =      F non collinear calculations
   LSORBIT =      F    spin-orbit coupling
   INIWAV =      1    electr: 0-lowe 1-rand  2-diag
   LASPH  =      F    aspherical Exc in radial PAW
   METAGGA=      F    non-selfconsistent MetaGGA calc.

 Electronic Relaxation 1
   ENCUT  =  600.0 eV  44.10 Ry    6.64 a.u.   7.75  7.75 19.10*2*pi/ulx,y,z
   ENINI  =  600.0     initial cutoff
   ENAUG  =  605.4 eV  augmentation charge cutoff
   NELM   =     60;   NELMIN=  2; NELMDL=-12     # of ELM steps 
   EDIFF  = 0.1E-05   stopping-criterion for ELM
   LREAL  =      T    real-space projection
   NLSPLINE    = F    spline interpolate recip. space projectors
   LCOMPAT=      F    compatible to vasp.4.4
   GGA_COMPAT  = T    GGA compatible to vasp.4.4-vasp.4.6
   LMAXPAW     = -100 max onsite density
   LMAXMIX     =    4 max onsite mixed and CHGCAR
   VOSKOWN=      0    Vosko Wilk Nusair interpolation
   ROPT   =   -0.00040  -0.00040  -0.00040
 Ionic relaxation
   EDIFFG = 0.1E-04   stopping-criterion for IOM
   NSW    =      0    number of steps for IOM
   NBLOCK =      1;   KBLOCK =      1    inner block; outer block 
   IBRION =     -1    ionic relax: 0-MD 1-quasi-New 2-CG
   NFREE  =      0    steps in history (QN), initial steepest desc. (CG)
   ISIF   =      2    stress and relaxation
   IWAVPR =     10    prediction:  0-non 1-charg 2-wave 3-comb
   ISYM   =      2    0-nonsym 1-usesym 2-fastsym
   LCORR  =      T    Harris-Foulkes like correction to forces

   POTIM  = 0.5000    time-step for ionic-motion
   TEIN   =    0.0    initial temperature
   TEBEG  =    0.0;   TEEND  =   0.0 temperature during run
   SMASS  =  -3.00    Nose mass-parameter (am)
   estimated Nose-frequenzy (Omega)   =  0.10E-29 period in steps =****** mass=  -0.344E-27a.u.
   SCALEE = 1.0000    scale energy and forces
   NPACO  =    256;   APACO  = 16.0  distance and # of slots for P.C.
   PSTRESS=    0.0 pullay stress

  Mass of Ions in am
   POMASS =  47.88 16.00  7.01
  Ionic Valenz
   ZVAL   =   4.00  6.00  1.00
  Atomic Wigner-Seitz radii
   RWIGS  =  -1.00 -1.00 -1.00
  virtual crystal weights 
   VCA    =   1.00  1.00  1.00
   NELECT =      65.0000    total number of electrons
   NUPDOWN=      -1.0000    fix difference up-down

 DOS related values:
   EMIN   =  10.00;   EMAX   =-10.00  energy-range for DOS
   EFERMI =   0.00
   ISMEAR =     0;   SIGMA  =   0.03  broadening in eV -4-tet -1-fermi 0-gaus

 Electronic relaxation 2 (details)
   IALGO  =     48    algorithm
   LDIAG  =      T    sub-space diagonalisation (order eigenvalues)
   LSUBROT=      F    optimize rotation matrix (better conditioning)
   TURBO    =      0    0=normal 1=particle mesh
   IRESTART =      0    0=no restart 2=restart with 2 vectors
   NREBOOT  =      0    no. of reboots
   NMIN     =      0    reboot dimension
   EREF     =   0.00    reference energy to select bands
   IMIX   =      4    mixing-type and parameters
     AMIX     =   0.40;   BMIX     =  1.00
     AMIX_MAG =   1.60;   BMIX_MAG =  1.00
     AMIN     =   0.01
     WC   =   100.;   INIMIX=   1;  MIXPRE=   1;  MAXMIX= -45

 Intra band minimization:
   WEIMIN = 0.0000     energy-eigenvalue tresh-hold
   EBREAK =  0.52E-08  absolut break condition
   DEPER  =   0.30     relativ break condition  

   TIME   =   0.40     timestep for ELM

  volume/ion in A,a.u.               =      11.09        74.81
  Fermi-wavevector in a.u.,A,eV,Ry     =   1.255507  2.372563 21.446820  1.576297
  Thomas-Fermi vector in A             =   2.389260
 
 Write flags
   LWAVE  =      F    write WAVECAR
   LCHARG =      T    write CHGCAR
   LVTOT  =      F    write LOCPOT, total local potential
   LVHAR  =      F    write LOCPOT, Hartree potential only
   LELF   =      F    write electronic localiz. function (ELF)
   LORBIT =     12    0 simple, 1 ext, 2 COOP (PROOUT)


 Dipole corrections
   LMONO  =      F    monopole corrections only (constant potential shift)
   LDIPOL =      F    correct potential (dipole corrections)
   IDIPOL =      0    1-x, 2-y, 3-z, 4-all directions 
   EPSILON=  1.0000000 bulk dielectric constant

 LDA+U is selected, type is set to LDAUTYPE =  2
   angular momentum for each species LDAUL =     2   -1   -1
   U (eV)           for each species LDAUU =   3.5  0.0  0.0
   J (eV)           for each species LDAUJ =   0.0  0.0  0.0
 Exchange correlation treatment:
   GGA     =    PE    GGA type
   LEXCH   =     8    internal setting for exchange type
   VOSKOWN=      0    Vosko Wilk Nusair interpolation
   LHFCALC =     F    Hartree Fock is set to
   LHFONE  =     F    Hartree Fock one center treatment
   AEXX    =    0.0000 exact exchange contribution

 Linear response parameters
   LEPSILON=     F    determine dielectric tensor
   LRPA    =     F    only Hartree local field effects (RPA)
   LNABLA  =     F    use nabla operator in PAW spheres
   LVEL    =     F    velocity operator in full k-point grid
   LINTERFAST=   F  fast interpolation
   KINTER  =     0    interpolate to denser k-point grid
   CSHIFT  =0.1000    complex shift for real part using Kramers Kronig
   OMEGAMAX=  -1.0    maximum frequency
   DEG_THRESHOLD= 0.2000000E-02 threshold for treating states as degnerate
   RTIME   =    0.100 relaxation time in fs

 Orbital magnetization related:
   ORBITALMAG=     F  switch on orbital magnetization
   LCHIMAG   =     F  perturbation theory with respect to B field
   DQ        =  0.001000  dq finite difference perturbation B field



--------------------------------------------------------------------------------------------------------


 Static calculation
 charge density and potential will be updated during run
 spin polarized calculation
 RMM-DIIS sequential band-by-band
 perform sub-space diagonalisation
    before iterative eigenvector-optimisation
 modified Broyden-mixing scheme, WC =      100.0
 initial mixing is a Kerker type mixing with AMIX =  0.4000 and BMIX =      1.0000
 Hartree-type preconditioning will be used
 using additional bands           15
 real space projection scheme for non local part
 use partial core corrections
 calculate Harris-corrections to forces 
   (improved forces if not selfconsistent)
 use gradient corrections 
 use of overlap-Matrix (Vanderbilt PP)
 Gauss-broadening in eV      SIGMA  =   0.03


--------------------------------------------------------------------------------------------------------


  energy-cutoff  :      600.00
  volume of cell :      144.11
      direct lattice vectors                 reciprocal lattice vectors
     3.881571359  0.000000000  0.000000000     0.257627622 -0.000000000  0.000000000
     0.000000000  3.881571359  0.000000000     0.000000000  0.257627622  0.000000000
     0.000000000  0.000000000  9.564575708    -0.000000000 -0.000000000  0.104552468

  length of vectors
     3.881571359  3.881571359  9.564575708     0.257627622  0.257627622  0.104552468


 
 k-points in units of 2pi/SCALE and weight: KPOINTS created by Atomic Simulation Env
   0.00000000  0.00000000  0.00000000       0.014
   0.04293794 -0.00000000  0.00000000       0.028
   0.08587587 -0.00000000  0.00000000       0.028
   0.12881381 -0.00000000  0.00000000       0.014
   0.00000000  0.04293794  0.00000000       0.028
   0.04293794  0.04293794  0.00000000       0.028
   0.08587587  0.04293794  0.00000000       0.028
   0.12881381  0.04293794  0.00000000       0.028
  -0.08587587  0.04293794  0.00000000       0.028
  -0.04293794  0.04293794  0.00000000       0.028
   0.00000000  0.08587587  0.00000000       0.028
   0.04293794  0.08587587  0.00000000       0.028
   0.08587587  0.08587587  0.00000000       0.028
   0.12881381  0.08587587  0.00000000       0.028
  -0.08587587  0.08587587  0.00000000       0.028
  -0.04293794  0.08587587  0.00000000       0.028
   0.00000000  0.12881381  0.00000000       0.014
   0.04293794  0.12881381  0.00000000       0.028
   0.08587587  0.12881381  0.00000000       0.028
   0.12881381  0.12881381  0.00000000       0.014
  -0.00000000 -0.00000000  0.05227623       0.014
   0.04293794 -0.00000000  0.05227623       0.028
   0.08587587 -0.00000000  0.05227623       0.028
   0.12881381 -0.00000000  0.05227623       0.014
  -0.00000000  0.04293794  0.05227623       0.028
   0.04293794  0.04293794  0.05227623       0.028
   0.08587587  0.04293794  0.05227623       0.028
   0.12881381  0.04293794  0.05227623       0.028
  -0.08587587  0.04293794  0.05227623       0.028
  -0.04293794  0.04293794  0.05227623       0.028
  -0.00000000  0.08587587  0.05227623       0.028
   0.04293794  0.08587587  0.05227623       0.028
   0.08587587  0.08587587  0.05227623       0.028
   0.12881381  0.08587587  0.05227623       0.028
  -0.08587587  0.08587587  0.05227623       0.028
  -0.04293794  0.08587587  0.05227623       0.028
  -0.00000000  0.12881381  0.05227623       0.014
   0.04293794  0.12881381  0.05227623       0.028
   0.08587587  0.12881381  0.05227623       0.028
   0.12881381  0.12881381  0.05227623       0.014
 
 k-points in reciprocal lattice and weights: KPOINTS created by Atomic Simulation Env
   0.00000000  0.00000000  0.00000000       0.014
   0.16666667  0.00000000  0.00000000       0.028
   0.33333333  0.00000000  0.00000000       0.028
   0.50000000  0.00000000  0.00000000       0.014
   0.00000000  0.16666667  0.00000000       0.028
   0.16666667  0.16666667  0.00000000       0.028
   0.33333333  0.16666667  0.00000000       0.028
   0.50000000  0.16666667  0.00000000       0.028
  -0.33333333  0.16666667  0.00000000       0.028
  -0.16666667  0.16666667  0.00000000       0.028
   0.00000000  0.33333333  0.00000000       0.028
   0.16666667  0.33333333  0.00000000       0.028
   0.33333333  0.33333333  0.00000000       0.028
   0.50000000  0.33333333  0.00000000       0.028
  -0.33333333  0.33333333  0.00000000       0.028
  -0.16666667  0.33333333  0.00000000       0.028
   0.00000000  0.50000000  0.00000000       0.014
   0.16666667  0.50000000  0.00000000       0.028
   0.33333333  0.50000000  0.00000000       0.028
   0.50000000  0.50000000  0.00000000       0.014
  -0.00000000  0.00000000  0.50000000       0.014
   0.16666667 -0.00000000  0.50000000       0.028
   0.33333333 -0.00000000  0.50000000       0.028
   0.50000000  0.00000000  0.50000000       0.014
  -0.00000000  0.16666667  0.50000000       0.028
   0.16666667  0.16666667  0.50000000       0.028
   0.33333333  0.16666667  0.50000000       0.028
   0.50000000  0.16666667  0.50000000       0.028
  -0.33333333  0.16666667  0.50000000       0.028
  -0.16666667  0.16666667  0.50000000       0.028
  -0.00000000  0.33333333  0.50000000       0.028
   0.16666667  0.33333333  0.50000000       0.028
   0.33333333  0.33333333  0.50000000       0.028
   0.50000000  0.33333333  0.50000000       0.028
  -0.33333333  0.33333333  0.50000000       0.028
  -0.16666667  0.33333333  0.50000000       0.028
  -0.00000000  0.50000000  0.50000000       0.014
   0.16666667  0.50000000  0.50000000       0.028
   0.33333333  0.50000000  0.50000000       0.028
   0.50000000  0.50000000  0.50000000       0.014
 
 position of ions in fractional coordinates (direct lattice) 
   0.49806793  0.49894211  0.49833596
   0.49868788  0.99892742  0.74099835
   0.99869920  0.99954822  0.99822948
   0.99822199  0.49970651  0.25586687
   0.99814921  0.49909305  0.46060870
   0.49894106  0.49897055  0.71199467
   0.49817069  0.99898330  0.53607636
   0.99879667  0.99895677  0.78400601
   0.49877107  0.99948776  0.95602185
   0.99817304  0.99959685  0.21260077
   0.99872224  0.49954683  0.04088279
   0.49818366  0.49950633  0.28436862
   0.49876192  0.49952020  0.00000603
 
 position of ions in cartesian coordinates  (Angst):
   1.93328623  1.93667941  4.76637203
   1.93569261  3.87740808  7.08733486
   3.87652222  3.87981773  9.54764146
   3.87466988  1.93964647  2.44725805
   3.87438739  1.93726530  4.40552676
   1.93667535  1.93678979  6.80992697
   1.93368510  3.87762495  5.12734293
   3.87690055  3.87752199  7.49868484
   1.93601548  3.87958306  9.14394337
   3.87447989  3.88000652  2.03343620
   3.87661166  1.93902668  0.39102656
   1.93373544  1.93886946  2.71986523
   1.93597999  1.93892331  0.00005769
 


--------------------------------------------------------------------------------------------------------


 k-point  1 :   0.0000 0.0000 0.0000  plane waves:    4791
 k-point  2 :   0.1667 0.0000 0.0000  plane waves:    4811
 k-point  3 :   0.3333 0.0000 0.0000  plane waves:    4820
 k-point  4 :   0.5000 0.0000 0.0000  plane waves:    4844
 k-point  5 :   0.0000 0.1667 0.0000  plane waves:    4811
 k-point  6 :   0.1667 0.1667 0.0000  plane waves:    4791
 k-point  7 :   0.3333 0.1667 0.0000  plane waves:    4813
 k-point  8 :   0.5000 0.1667 0.0000  plane waves:    4812
 k-point  9 :  -0.3333 0.1667 0.0000  plane waves:    4813
 k-point 10 :  -0.1667 0.1667 0.0000  plane waves:    4791
 k-point 11 :   0.0000 0.3333 0.0000  plane waves:    4820
 k-point 12 :   0.1667 0.3333 0.0000  plane waves:    4813
 k-point 13 :   0.3333 0.3333 0.0000  plane waves:    4793
 k-point 14 :   0.5000 0.3333 0.0000  plane waves:    4798
 k-point 15 :  -0.3333 0.3333 0.0000  plane waves:    4793
 k-point 16 :  -0.1667 0.3333 0.0000  plane waves:    4813
 k-point 17 :   0.0000 0.5000 0.0000  plane waves:    4844
 k-point 18 :   0.1667 0.5000 0.0000  plane waves:    4812
 k-point 19 :   0.3333 0.5000 0.0000  plane waves:    4798
 k-point 20 :   0.5000 0.5000 0.0000  plane waves:    4796
 k-point 21 :  -0.0000 0.0000 0.5000  plane waves:    4838
 k-point 22 :   0.1667-0.0000 0.5000  plane waves:    4792
 k-point 23 :   0.3333-0.0000 0.5000  plane waves:    4816
 k-point 24 :   0.5000 0.0000 0.5000  plane waves:    4788
 k-point 25 :  -0.0000 0.1667 0.5000  plane waves:    4792
 k-point 26 :   0.1667 0.1667 0.5000  plane waves:    4808
 k-point 27 :   0.3333 0.1667 0.5000  plane waves:    4814
 k-point 28 :   0.5000 0.1667 0.5000  plane waves:    4828
 k-point 29 :  -0.3333 0.1667 0.5000  plane waves:    4814
 k-point 30 :  -0.1667 0.1667 0.5000  plane waves:    4808
 k-point 31 :  -0.0000 0.3333 0.5000  plane waves:    4816
 k-point 32 :   0.1667 0.3333 0.5000  plane waves:    4814
 k-point 33 :   0.3333 0.3333 0.5000  plane waves:    4808
 k-point 34 :   0.5000 0.3333 0.5000  plane waves:    4816
 k-point 35 :  -0.3333 0.3333 0.5000  plane waves:    4808
 k-point 36 :  -0.1667 0.3333 0.5000  plane waves:    4814
 k-point 37 :  -0.0000 0.5000 0.5000  plane waves:    4788
 k-point 38 :   0.1667 0.5000 0.5000  plane waves:    4828
 k-point 39 :   0.3333 0.5000 0.5000  plane waves:    4816
 k-point 40 :   0.5000 0.5000 0.5000  plane waves:    4816

 maximum and minimum number of plane-waves per node :       620      583

 maximum number of plane-waves:      4844
 maximum index in each direction: 
   IXMAX=    8   IYMAX=    7   IZMAX=   19
   IXMIN=   -8   IYMIN=   -8   IZMIN=  -19

 WARNING: aliasing errors must be expected set NGX to  34 to avoid them
 NGY is ok and might be reduce to  32
 NGZ is ok and might be reduce to  78
 aliasing errors are usually negligible using standard VASP settings
 and one can safely disregard these warnings

 real space projection operators:
  total allocation   :       4467.25 KBytes
  max/ min on nodes  :        568.05        532.55


 parallel 3D FFT for wavefunctions:
    minimum data exchange during FFTs selected (reduces bandwidth)
 parallel 3D FFT for charge:
    minimum data exchange during FFTs selected (reduces bandwidth)


 total amount of memory used by VASP on root node    39114. kBytes
========================================================================

   base      :      30000. kBytes
   nonlr-proj:       2448. kBytes
   fftplans  :        480. kBytes
   grid      :       1228. kBytes
   one-center:         43. kBytes
   wavefun   :       4915. kBytes
 
     INWAV:  cpu time    0.0000: real time    0.0000
 Broyden mixing: mesh for mixing (old mesh)
   NGX = 15   NGY = 15   NGZ = 39
  (NGX  = 42   NGY  = 42   NGZ  =108)
  gives a total of   8775 points

 initial charge density was supplied:
 charge density of overlapping atoms calculated
 number of electron      65.0000000 magnetization      13.0000000
 keeping initial charge density in first step


--------------------------------------------------------------------------------------------------------


 Maximum index for non-local projection operator         1015
 Maximum index for augmentation-charges          610 (set IRDMAX)


--------------------------------------------------------------------------------------------------------


 First call to EWALD:  gamma=   0.338
 Maximum number of real-space cells 4x 4x 2
 Maximum number of reciprocal cells 2x 2x 5

 FEWALD executed in parallel
    FEWALD:  cpu time    0.0014: real time    0.0014


----------------------------------------- Iteration    1(   1)  ---------------------------------------


    POTLOK:  cpu time    0.0106: real time    0.0107
    SETDIJ:  cpu time    0.0059: real time    0.0061
    EDDIAG:  cpu time    0.4533: real time    0.4619
  RMM-DIIS:  cpu time    0.2347: real time    0.2366
    ORTHCH:  cpu time    0.0678: real time    0.0682
       DOS:  cpu time    0.0017: real time    0.0020
    --------------------------------------------
      LOOP:  cpu time    0.7782: real time    0.7907

 eigenvalue-minimisations  :  3840
 total energy-change (2. order) : 0.8498317E+03  (-0.2472619E+04)
 number of electron      65.0000000 magnetization      13.0000000
 augmentation part       65.0000000 magnetization      13.0000000

 Free energy of the ion-electron system (eV)
  ---------------------------------------------------
  alpha Z        PSCENC =       243.71444794
  Ewald energy   TEWEN  =     -2950.41138062
  -Hartree energ DENC   =     -1024.19028267
  -exchange      EXHF   =         0.00000000
  -V(xc)+E(xc)   XCENC  =        70.20483547
  PAW double counting   =      3280.41260223    -3122.90980962
  entropy T*S    EENTRO =        -0.00298804
  eigenvalues    EBANDS =       509.64752353
  atomic energy  EATOM  =      3843.36674330
  Solvation  Ediel_sol  =         0.00000000
  ---------------------------------------------------
  free energy    TOTEN  =       849.83169151 eV

  energy without entropy =      849.83467956  energy(sigma->0) =      849.83318554


--------------------------------------------------------------------------------------------------------




----------------------------------------- Iteration    1(   2)  ---------------------------------------


    EDDIAG:  cpu time    0.4453: real time    0.4484
  RMM-DIIS:  cpu time    0.2337: real time    0.2350
    ORTHCH:  cpu time    0.0666: real time    0.0670
       DOS:  cpu time    0.0016: real time    0.0016
    --------------------------------------------
      LOOP:  cpu time    0.7485: real time    0.7666

 eigenvalue-minimisations  :  3840
 total energy-change (2. order) :-0.5680435E+03  (-0.5602742E+03)
 number of electron      65.0000000 magnetization      13.0000000
 augmentation part       65.0000000 magnetization      13.0000000

 Free energy of the ion-electron system (eV)
  ---------------------------------------------------
  alpha Z        PSCENC =       243.71444794
  Ewald energy   TEWEN  =     -2950.41138062
  -Hartree energ DENC   =     -1024.19028267
  -exchange      EXHF   =         0.00000000
  -V(xc)+E(xc)   XCENC  =        70.20483547
  PAW double counting   =      3280.41260223    -3122.90980962
  entropy T*S    EENTRO =        -0.00209774
  eigenvalues    EBANDS =       -58.39688186
  atomic energy  EATOM  =      3843.36674330
  Solvation  Ediel_sol  =         0.00000000
  ---------------------------------------------------
  free energy    TOTEN  =       281.78817643 eV

  energy without entropy =      281.79027417  energy(sigma->0) =      281.78922530


--------------------------------------------------------------------------------------------------------




----------------------------------------- Iteration    1(   3)  ---------------------------------------


    EDDIAG:  cpu time    0.4260: real time    0.4292
  RMM-DIIS:  cpu time    0.2378: real time    0.2393
    ORTHCH:  cpu time    0.0673: real time    0.0677
       DOS:  cpu time    0.0016: real time    0.0016
    --------------------------------------------
      LOOP:  cpu time    0.7337: real time    0.7534

 eigenvalue-minimisations  :  3840
 total energy-change (2. order) :-0.2070682E+03  (-0.1985506E+03)
 number of electron      65.0000000 magnetization      13.0000000
 augmentation part       65.0000000 magnetization      13.0000000

 Free energy of the ion-electron system (eV)
  ---------------------------------------------------
  alpha Z        PSCENC =       243.71444794
  Ewald energy   TEWEN  =     -2950.41138062
  -Hartree energ DENC   =     -1024.19028267
  -exchange      EXHF   =         0.00000000
  -V(xc)+E(xc)   XCENC  =        70.20483547
  PAW double counting   =      3280.41260223    -3122.90980962
  entropy T*S    EENTRO =        -0.00454337
  eigenvalues    EBANDS =      -265.46266722
  atomic energy  EATOM  =      3843.36674330
  Solvation  Ediel_sol  =         0.00000000
  ---------------------------------------------------
  free energy    TOTEN  =        74.71994545 eV

  energy without entropy =       74.72448881  energy(sigma->0) =       74.72221713


--------------------------------------------------------------------------------------------------------




----------------------------------------- Iteration    1(   4)  ---------------------------------------


    EDDIAG:  cpu time    0.4210: real time    0.4250
  RMM-DIIS:  cpu time    0.2342: real time    0.2359
    ORTHCH:  cpu time    0.0723: real time    0.0728
       DOS:  cpu time    0.0016: real time    0.0016
    --------------------------------------------
      LOOP:  cpu time    0.7303: real time    0.7499

 eigenvalue-minimisations  :  3840
 total energy-change (2. order) :-0.1186591E+03  (-0.8654279E+02)
 number of electron      65.0000000 magnetization      13.0000000
 augmentation part       65.0000000 magnetization      13.0000000

 Free energy of the ion-electron system (eV)
  ---------------------------------------------------
  alpha Z        PSCENC =       243.71444794
  Ewald energy   TEWEN  =     -2950.41138062
  -Hartree energ DENC   =     -1024.19028267
  -exchange      EXHF   =         0.00000000
  -V(xc)+E(xc)   XCENC  =        70.20483547
  PAW double counting   =      3280.41260223    -3122.90980962
  entropy T*S    EENTRO =        -0.00082023
  eigenvalues    EBANDS =      -384.12546572
  atomic energy  EATOM  =      3843.36674330
  Solvation  Ediel_sol  =         0.00000000
  ---------------------------------------------------
  free energy    TOTEN  =       -43.93912993 eV

  energy without entropy =      -43.93830970  energy(sigma->0) =      -43.93871981


--------------------------------------------------------------------------------------------------------




----------------------------------------- Iteration    1(   5)  ---------------------------------------


    EDDIAG:  cpu time    0.4283: real time    0.4319
  RMM-DIIS:  cpu time    0.2352: real time    0.2371
    ORTHCH:  cpu time    0.0671: real time    0.0676
       DOS:  cpu time    0.0016: real time    0.0016
    --------------------------------------------
      LOOP:  cpu time    0.7344: real time    0.7539

 eigenvalue-minimisations  :  3840
 total energy-change (2. order) :-0.5127539E+02  (-0.3987158E+02)
 number of electron      65.0000000 magnetization      13.0000000
 augmentation part       65.0000000 magnetization      13.0000000

 Free energy of the ion-electron system (eV)
  ---------------------------------------------------
  alpha Z        PSCENC =       243.71444794
  Ewald energy   TEWEN  =     -2950.41138062
  -Hartree energ DENC   =     -1024.19028267
  -exchange      EXHF   =         0.00000000
  -V(xc)+E(xc)   XCENC  =        70.20483547
  PAW double counting   =      3280.41260223    -3122.90980962
  entropy T*S    EENTRO =        -0.00149627
  eigenvalues    EBANDS =      -435.40018351
  atomic energy  EATOM  =      3843.36674330
  Solvation  Ediel_sol  =         0.00000000
  ---------------------------------------------------
  free energy    TOTEN  =       -95.21452375 eV

  energy without entropy =      -95.21302748  energy(sigma->0) =      -95.21377562


--------------------------------------------------------------------------------------------------------




----------------------------------------- Iteration    1(   6)  ---------------------------------------


    EDDIAG:  cpu time    0.4204: real time    0.4241
  RMM-DIIS:  cpu time    0.2374: real time    0.2394
    ORTHCH:  cpu time    0.0680: real time    0.0685
       DOS:  cpu time    0.0016: real time    0.0017
    --------------------------------------------
      LOOP:  cpu time    0.7285: real time    0.7486

 eigenvalue-minimisations  :  3840
 total energy-change (2. order) :-0.2143029E+02  (-0.1767351E+02)
 number of electron      65.0000000 magnetization      13.0000000
 augmentation part       65.0000000 magnetization      13.0000000

 Free energy of the ion-electron system (eV)
  ---------------------------------------------------
  alpha Z        PSCENC =       243.71444794
  Ewald energy   TEWEN  =     -2950.41138062
  -Hartree energ DENC   =     -1024.19028267
  -exchange      EXHF   =         0.00000000
  -V(xc)+E(xc)   XCENC  =        70.20483547
  PAW double counting   =      3280.41260223    -3122.90980962
  entropy T*S    EENTRO =        -0.00218410
  eigenvalues    EBANDS =      -456.82978976
  atomic energy  EATOM  =      3843.36674330
  Solvation  Ediel_sol  =         0.00000000
  ---------------------------------------------------
  free energy    TOTEN  =      -116.64481783 eV

  energy without entropy =     -116.64263373  energy(sigma->0) =     -116.64372578


--------------------------------------------------------------------------------------------------------




----------------------------------------- Iteration    1(   7)  ---------------------------------------


    EDDIAG:  cpu time    0.4212: real time    0.4251
  RMM-DIIS:  cpu time    0.2339: real time    0.2356
    ORTHCH:  cpu time    0.0667: real time    0.0672
       DOS:  cpu time    0.0016: real time    0.0016
    --------------------------------------------
      LOOP:  cpu time    0.7246: real time    0.7444

 eigenvalue-minimisations  :  3840
 total energy-change (2. order) :-0.7029966E+01  (-0.6215169E+01)
 number of electron      65.0000000 magnetization      13.0000000
 augmentation part       65.0000000 magnetization      13.0000000

 Free energy of the ion-electron system (eV)
  ---------------------------------------------------
  alpha Z        PSCENC =       243.71444794
  Ewald energy   TEWEN  =     -2950.41138062
  -Hartree energ DENC   =     -1024.19028267
  -exchange      EXHF   =         0.00000000
  -V(xc)+E(xc)   XCENC  =        70.20483547
  PAW double counting   =      3280.41260223    -3122.90980962
  entropy T*S    EENTRO =        -0.00276711
  eigenvalues    EBANDS =      -463.85917270
  atomic energy  EATOM  =      3843.36674330
  Solvation  Ediel_sol  =         0.00000000
  ---------------------------------------------------
  free energy    TOTEN  =      -123.67478378 eV

  energy without entropy =     -123.67201667  energy(sigma->0) =     -123.67340022


--------------------------------------------------------------------------------------------------------




----------------------------------------- Iteration    1(   8)  ---------------------------------------


    EDDIAG:  cpu time    0.4350: real time    0.4391
  RMM-DIIS:  cpu time    0.2371: real time    0.2388
    ORTHCH:  cpu time    0.0666: real time    0.0671
       DOS:  cpu time    0.0017: real time    0.0017
    --------------------------------------------
      LOOP:  cpu time    0.7414: real time    0.7619

 eigenvalue-minimisations  :  3840
 total energy-change (2. order) :-0.2937325E+01  (-0.2517746E+01)
 number of electron      65.0000000 magnetization      13.0000000
 augmentation part       65.0000000 magnetization      13.0000000

 Free energy of the ion-electron system (eV)
  ---------------------------------------------------
  alpha Z        PSCENC =       243.71444794
  Ewald energy   TEWEN  =     -2950.41138062
  -Hartree energ DENC   =     -1024.19028267
  -exchange      EXHF   =         0.00000000
  -V(xc)+E(xc)   XCENC  =        70.20483547
  PAW double counting   =      3280.41260223    -3122.90980962
  entropy T*S    EENTRO =        -0.00284469
  eigenvalues    EBANDS =      -466.79642056
  atomic energy  EATOM  =      3843.36674330
  Solvation  Ediel_sol  =         0.00000000
  ---------------------------------------------------
  free energy    TOTEN  =      -126.61210922 eV

  energy without entropy =     -126.60926453  energy(sigma->0) =     -126.61068688


--------------------------------------------------------------------------------------------------------




----------------------------------------- Iteration    1(   9)  ---------------------------------------


    EDDIAG:  cpu time    0.4205: real time    0.4246
  RMM-DIIS:  cpu time    0.6574: real time    0.6629
    ORTHCH:  cpu time    0.0669: real time    0.0674
       DOS:  cpu time    0.0016: real time    0.0017
    --------------------------------------------
      LOOP:  cpu time    1.1477: real time    1.1742

 eigenvalue-minimisations  : 12288
 total energy-change (2. order) :-0.1942627E+01  (-0.1856153E+01)
 number of electron      65.0000000 magnetization      13.0000000
 augmentation part       65.0000000 magnetization      13.0000000

 Free energy of the ion-electron system (eV)
  ---------------------------------------------------
  alpha Z        PSCENC =       243.71444794
  Ewald energy   TEWEN  =     -2950.41138062
  -Hartree energ DENC   =     -1024.19028267
  -exchange      EXHF   =         0.00000000
  -V(xc)+E(xc)   XCENC  =        70.20483547
  PAW double counting   =      3280.41260223    -3122.90980962
  entropy T*S    EENTRO =        -0.00249839
  eigenvalues    EBANDS =      -468.73939433
  atomic energy  EATOM  =      3843.36674330
  Solvation  Ediel_sol  =         0.00000000
  ---------------------------------------------------
  free energy    TOTEN  =      -128.55473669 eV

  energy without entropy =     -128.55223830  energy(sigma->0) =     -128.55348750


--------------------------------------------------------------------------------------------------------




----------------------------------------- Iteration    1(  10)  ---------------------------------------


    EDDIAG:  cpu time    0.4263: real time    0.4306
  RMM-DIIS:  cpu time    0.6774: real time    0.6821
    ORTHCH:  cpu time    0.0672: real time    0.0676
       DOS:  cpu time    0.0015: real time    0.0015
    --------------------------------------------
      LOOP:  cpu time    1.1735: real time    1.1979

 eigenvalue-minimisations  : 12729
 total energy-change (2. order) :-0.1160809E+00  (-0.1093755E+00)
 number of electron      65.0000000 magnetization      13.0000000
 augmentation part       65.0000000 magnetization      13.0000000

 Free energy of the ion-electron system (eV)
  ---------------------------------------------------
  alpha Z        PSCENC =       243.71444794
  Ewald energy   TEWEN  =     -2950.41138062
  -Hartree energ DENC   =     -1024.19028267
  -exchange      EXHF   =         0.00000000
  -V(xc)+E(xc)   XCENC  =        70.20483547
  PAW double counting   =      3280.41260223    -3122.90980962
  entropy T*S    EENTRO =        -0.00169150
  eigenvalues    EBANDS =      -468.85628208
  atomic energy  EATOM  =      3843.36674330
  Solvation  Ediel_sol  =         0.00000000
  ---------------------------------------------------
  free energy    TOTEN  =      -128.67081755 eV

  energy without entropy =     -128.66912605  energy(sigma->0) =     -128.66997180


--------------------------------------------------------------------------------------------------------




----------------------------------------- Iteration    1(  11)  ---------------------------------------


    EDDIAG:  cpu time    0.4184: real time    0.4217
  RMM-DIIS:  cpu time    0.6721: real time    0.6768
    ORTHCH:  cpu time    0.0674: real time    0.0680
       DOS:  cpu time    0.0016: real time    0.0016
    --------------------------------------------
      LOOP:  cpu time    1.1608: real time    1.1834

 eigenvalue-minimisations  : 12574
 total energy-change (2. order) :-0.9132144E-02  (-0.8715349E-02)
 number of electron      65.0000000 magnetization      13.0000000
 augmentation part       65.0000000 magnetization      13.0000000

 Free energy of the ion-electron system (eV)
  ---------------------------------------------------
  alpha Z        PSCENC =       243.71444794
  Ewald energy   TEWEN  =     -2950.41138062
  -Hartree energ DENC   =     -1024.19028267
  -exchange      EXHF   =         0.00000000
  -V(xc)+E(xc)   XCENC  =        70.20483547
  PAW double counting   =      3280.41260223    -3122.90980962
  entropy T*S    EENTRO =        -0.00165486
  eigenvalues    EBANDS =      -468.86545086
  atomic energy  EATOM  =      3843.36674330
  Solvation  Ediel_sol  =         0.00000000
  ---------------------------------------------------
  free energy    TOTEN  =      -128.67994970 eV

  energy without entropy =     -128.67829483  energy(sigma->0) =     -128.67912226


--------------------------------------------------------------------------------------------------------




----------------------------------------- Iteration    1(  12)  ---------------------------------------


    EDDIAG:  cpu time    0.4184: real time    0.4218
  RMM-DIIS:  cpu time    0.6060: real time    0.6107
    ORTHCH:  cpu time    0.0666: real time    0.0671
       DOS:  cpu time    0.0015: real time    0.0015
    CHARGE:  cpu time    0.0328: real time    0.0330
    MIXING:  cpu time    0.0015: real time    0.0017
    --------------------------------------------
      LOOP:  cpu time    1.1280: real time    1.1492

 eigenvalue-minimisations  : 11271
 total energy-change (2. order) :-0.2163251E-02  (-0.1853443E-02)
 number of electron      64.9999686 magnetization       7.2120618
 augmentation part        8.0543401 magnetization       6.6303864

 Broyden mixing:
  rms(total) = 0.58165E+01    rms(broyden)= 0.58163E+01
  rms(prec ) = 0.67067E+01
  weight for this iteration     100.00

 Free energy of the ion-electron system (eV)
  ---------------------------------------------------
  alpha Z        PSCENC =       243.71444794
  Ewald energy   TEWEN  =     -2950.41138062
  -Hartree energ DENC   =     -1024.19028267
  -exchange      EXHF   =         0.00000000
  -V(xc)+E(xc)   XCENC  =        70.20483547
  PAW double counting   =      3280.41260223    -3122.90980962
  entropy T*S    EENTRO =        -0.00162495
  eigenvalues    EBANDS =      -468.86764403
  atomic energy  EATOM  =      3843.36674330
  Solvation  Ediel_sol  =         0.00000000
  ---------------------------------------------------
  free energy    TOTEN  =      -128.68211295 eV

  energy without entropy =     -128.68048800  energy(sigma->0) =     -128.68130047


--------------------------------------------------------------------------------------------------------




----------------------------------------- Iteration    1(  13)  ---------------------------------------


    POTLOK:  cpu time    0.0071: real time    0.0072
    SETDIJ:  cpu time    0.0037: real time    0.0038
    EDDIAG:  cpu time    0.4193: real time    0.4222
  RMM-DIIS:  cpu time    0.4960: real time    0.4991
    ORTHCH:  cpu time    0.0669: real time    0.0673
       DOS:  cpu time    0.0015: real time    0.0015
    CHARGE:  cpu time    0.0327: real time    0.0328
    MIXING:  cpu time    0.0004: real time    0.0004
    --------------------------------------------
      LOOP:  cpu time    1.0289: real time    1.0518

 eigenvalue-minimisations  :  8493
 total energy-change (2. order) : 0.3756981E+02  (-0.1927178E+02)
 number of electron      64.9999776 magnetization       4.2571734
 augmentation part        8.9187836 magnetization       3.6173695

 Broyden mixing:
  rms(total) = 0.21390E+01    rms(broyden)= 0.21385E+01
  rms(prec ) = 0.22562E+01
  weight for this iteration     100.00

 eigenvalues of (default mixing * dielectric matrix)
  average eigenvalue GAMMA=   1.0088
  1.0088

 Free energy of the ion-electron system (eV)
  ---------------------------------------------------
  alpha Z        PSCENC =       243.71444794
  Ewald energy   TEWEN  =     -2950.41138062
  -Hartree energ DENC   =     -1203.25538393
  -exchange      EXHF   =         0.00000000
  -V(xc)+E(xc)   XCENC  =        88.09082957
  PAW double counting   =      4324.35745827    -4168.85763124
  entropy T*S    EENTRO =        -0.00094223
  eigenvalues    EBANDS =      -268.11644445
  atomic energy  EATOM  =      3843.36674330
  Solvation  Ediel_sol  =         0.00000000
  ---------------------------------------------------
  free energy    TOTEN  =       -91.11230341 eV

  energy without entropy =      -91.11136117  energy(sigma->0) =      -91.11183229


--------------------------------------------------------------------------------------------------------




----------------------------------------- Iteration    1(  14)  ---------------------------------------


    POTLOK:  cpu time    0.0069: real time    0.0069
    SETDIJ:  cpu time    0.0037: real time    0.0037
    EDDIAG:  cpu time    0.4186: real time    0.4214
  RMM-DIIS:  cpu time    0.5092: real time    0.5125
    ORTHCH:  cpu time    0.0673: real time    0.0677
       DOS:  cpu time    0.0015: real time    0.0016
    CHARGE:  cpu time    0.0328: real time    0.0330
    MIXING:  cpu time    0.0004: real time    0.0004
    --------------------------------------------
      LOOP:  cpu time    1.0417: real time    1.0647

 eigenvalue-minimisations  :  8899
 total energy-change (2. order) :-0.4703462E+01  (-0.1065009E+01)
 number of electron      64.9999763 magnetization       1.3912000
 augmentation part        8.6070319 magnetization       0.9612264

 Broyden mixing:
  rms(total) = 0.12331E+01    rms(broyden)= 0.12331E+01
  rms(prec ) = 0.12931E+01
  weight for this iteration     100.00

 eigenvalues of (default mixing * dielectric matrix)
  average eigenvalue GAMMA=   1.1826
  0.8355  1.5297

 Free energy of the ion-electron system (eV)
  ---------------------------------------------------
  alpha Z        PSCENC =       243.71444794
  Ewald energy   TEWEN  =     -2950.41138062
  -Hartree energ DENC   =     -1166.21786842
  -exchange      EXHF   =         0.00000000
  -V(xc)+E(xc)   XCENC  =        82.49526011
  PAW double counting   =      4849.35135189    -4693.30713852
  entropy T*S    EENTRO =        -0.00061497
  eigenvalues    EBANDS =      -304.80656621
  atomic energy  EATOM  =      3843.36674330
  Solvation  Ediel_sol  =         0.00000000
  ---------------------------------------------------
  free energy    TOTEN  =       -95.81576551 eV

  energy without entropy =      -95.81515054  energy(sigma->0) =      -95.81545803


--------------------------------------------------------------------------------------------------------




----------------------------------------- Iteration    1(  15)  ---------------------------------------


    POTLOK:  cpu time    0.0066: real time    0.0066
    SETDIJ:  cpu time    0.0036: real time    0.0037
    EDDIAG:  cpu time    0.4179: real time    0.4209
  RMM-DIIS:  cpu time    0.5227: real time    0.5262
    ORTHCH:  cpu time    0.0675: real time    0.0679
       DOS:  cpu time    0.0015: real time    0.0015
    CHARGE:  cpu time    0.0320: real time    0.0321
    MIXING:  cpu time    0.0003: real time    0.0003
    --------------------------------------------
      LOOP:  cpu time    1.0534: real time    1.0734

 eigenvalue-minimisations  :  9313
 total energy-change (2. order) :-0.9197389E+00  (-0.4503965E+00)
 number of electron      64.9999761 magnetization       0.9342707
 augmentation part        8.8684324 magnetization       0.6082330

 Broyden mixing:
  rms(total) = 0.46520E+00    rms(broyden)= 0.46517E+00
  rms(prec ) = 0.52769E+00
  weight for this iteration     100.00

 eigenvalues of (default mixing * dielectric matrix)
  average eigenvalue GAMMA=   1.1855
  2.0404  0.9228  0.5933

 Free energy of the ion-electron system (eV)
  ---------------------------------------------------
  alpha Z        PSCENC =       243.71444794
  Ewald energy   TEWEN  =     -2950.41138062
  -Hartree energ DENC   =     -1154.45453453
  -exchange      EXHF   =         0.00000000
  -V(xc)+E(xc)   XCENC  =        81.86404741
  PAW double counting   =      5577.65964220    -5421.00061697
  entropy T*S    EENTRO =        -0.00092689
  eigenvalues    EBANDS =      -317.47292624
  atomic energy  EATOM  =      3843.36674330
  Solvation  Ediel_sol  =         0.00000000
  ---------------------------------------------------
  free energy    TOTEN  =       -96.73550440 eV

  energy without entropy =      -96.73457751  energy(sigma->0) =      -96.73504095


--------------------------------------------------------------------------------------------------------




----------------------------------------- Iteration    1(  16)  ---------------------------------------


    POTLOK:  cpu time    0.0064: real time    0.0065
    SETDIJ:  cpu time    0.0037: real time    0.0037
    EDDIAG:  cpu time    0.4180: real time    0.4209
  RMM-DIIS:  cpu time    0.5502: real time    0.5545
    ORTHCH:  cpu time    0.0668: real time    0.0673
       DOS:  cpu time    0.0016: real time    0.0016
    CHARGE:  cpu time    0.0318: real time    0.0320
    MIXING:  cpu time    0.0003: real time    0.0003
    --------------------------------------------
      LOOP:  cpu time    1.0803: real time    1.1042

 eigenvalue-minimisations  : 10043
 total energy-change (2. order) :-0.1350522E+00  (-0.5135656E-01)
 number of electron      64.9999760 magnetization       0.9799614
 augmentation part        8.8853992 magnetization       0.6749259

 Broyden mixing:
  rms(total) = 0.14678E+00    rms(broyden)= 0.14676E+00
  rms(prec ) = 0.21181E+00
  weight for this iteration     100.00

 eigenvalues of (default mixing * dielectric matrix)
  average eigenvalue GAMMA=   1.1526
  2.0373  1.0246  0.8874  0.6613

 Free energy of the ion-electron system (eV)
  ---------------------------------------------------
  alpha Z        PSCENC =       243.71444794
  Ewald energy   TEWEN  =     -2950.41138062
  -Hartree energ DENC   =     -1154.73585813
  -exchange      EXHF   =         0.00000000
  -V(xc)+E(xc)   XCENC  =        81.78879477
  PAW double counting   =      5723.20131339    -5567.00637748
  entropy T*S    EENTRO =        -0.00114497
  eigenvalues    EBANDS =      -316.78709476
  atomic energy  EATOM  =      3843.36674330
  Solvation  Ediel_sol  =         0.00000000
  ---------------------------------------------------
  free energy    TOTEN  =       -96.87055656 eV

  energy without entropy =      -96.86941159  energy(sigma->0) =      -96.86998408


--------------------------------------------------------------------------------------------------------




----------------------------------------- Iteration    1(  17)  ---------------------------------------


    POTLOK:  cpu time    0.0064: real time    0.0064
    SETDIJ:  cpu time    0.0036: real time    0.0037
    EDDIAG:  cpu time    0.4188: real time    0.4218
  RMM-DIIS:  cpu time    0.5353: real time    0.5387
    ORTHCH:  cpu time    0.0662: real time    0.0666
       DOS:  cpu time    0.0015: real time    0.0015
    CHARGE:  cpu time    0.0322: real time    0.0326
    MIXING:  cpu time    0.0004: real time    0.0004
    --------------------------------------------
      LOOP:  cpu time    1.0658: real time    1.0873

 eigenvalue-minimisations  :  9755
 total energy-change (2. order) : 0.6982362E-02  (-0.1726473E-01)
 number of electron      64.9999760 magnetization       0.9831536
 augmentation part        8.8759740 magnetization       0.6681235

 Broyden mixing:
  rms(total) = 0.10985E+00    rms(broyden)= 0.10983E+00
  rms(prec ) = 0.13642E+00
  weight for this iteration     100.00

 eigenvalues of (default mixing * dielectric matrix)
  average eigenvalue GAMMA=   1.0171
  2.0641  1.0582  0.8791  0.5937  0.4903

 Free energy of the ion-electron system (eV)
  ---------------------------------------------------
  alpha Z        PSCENC =       243.71444794
  Ewald energy   TEWEN  =     -2950.41138062
  -Hartree energ DENC   =     -1158.14971699
  -exchange      EXHF   =         0.00000000
  -V(xc)+E(xc)   XCENC  =        81.98876676
  PAW double counting   =      5731.47686514    -5575.42827938
  entropy T*S    EENTRO =        -0.00032343
  eigenvalues    EBANDS =      -313.42069691
  atomic energy  EATOM  =      3843.36674330
  Solvation  Ediel_sol  =         0.00000000
  ---------------------------------------------------
  free energy    TOTEN  =       -96.86357420 eV

  energy without entropy =      -96.86325078  energy(sigma->0) =      -96.86341249


--------------------------------------------------------------------------------------------------------




----------------------------------------- Iteration    1(  18)  ---------------------------------------


    POTLOK:  cpu time    0.0064: real time    0.0064
    SETDIJ:  cpu time    0.0036: real time    0.0036
    EDDIAG:  cpu time    0.4200: real time    0.4230
  RMM-DIIS:  cpu time    0.5574: real time    0.5610
    ORTHCH:  cpu time    0.0669: real time    0.0674
       DOS:  cpu time    0.0015: real time    0.0015
    CHARGE:  cpu time    0.0324: real time    0.0325
    MIXING:  cpu time    0.0005: real time    0.0005
    --------------------------------------------
      LOOP:  cpu time    1.0899: real time    1.1111

 eigenvalue-minimisations  : 10128
 total energy-change (2. order) :-0.4816830E-02  (-0.3315752E-02)
 number of electron      64.9999760 magnetization       0.9729884
 augmentation part        8.8773445 magnetization       0.6561712

 Broyden mixing:
  rms(total) = 0.65820E-01    rms(broyden)= 0.65816E-01
  rms(prec ) = 0.82741E-01
  weight for this iteration     100.00

 eigenvalues of (default mixing * dielectric matrix)
  average eigenvalue GAMMA=   1.0912
  2.1422  1.4494  0.8452  0.7274  0.7274  0.6555

 Free energy of the ion-electron system (eV)
  ---------------------------------------------------
  alpha Z        PSCENC =       243.71444794
  Ewald energy   TEWEN  =     -2950.41138062
  -Hartree energ DENC   =     -1159.66744615
  -exchange      EXHF   =         0.00000000
  -V(xc)+E(xc)   XCENC  =        82.11869380
  PAW double counting   =      5746.16799857    -5590.11485744
  entropy T*S    EENTRO =        -0.00065929
  eigenvalues    EBANDS =      -312.04193114
  atomic energy  EATOM  =      3843.36674330
  Solvation  Ediel_sol  =         0.00000000
  ---------------------------------------------------
  free energy    TOTEN  =       -96.86839103 eV

  energy without entropy =      -96.86773174  energy(sigma->0) =      -96.86806139


--------------------------------------------------------------------------------------------------------




----------------------------------------- Iteration    1(  19)  ---------------------------------------


    POTLOK:  cpu time    0.0064: real time    0.0065
    SETDIJ:  cpu time    0.0037: real time    0.0037
    EDDIAG:  cpu time    0.4195: real time    0.4226
  RMM-DIIS:  cpu time    0.5489: real time    0.5524
    ORTHCH:  cpu time    0.0674: real time    0.0678
       DOS:  cpu time    0.0015: real time    0.0015
    CHARGE:  cpu time    0.0317: real time    0.0319
    MIXING:  cpu time    0.0004: real time    0.0004
    --------------------------------------------
      LOOP:  cpu time    1.0809: real time    1.1015

 eigenvalue-minimisations  : 10089
 total energy-change (2. order) :-0.2613494E-02  (-0.1665644E-02)
 number of electron      64.9999760 magnetization       0.9531179
 augmentation part        8.8671894 magnetization       0.6319657

 Broyden mixing:
  rms(total) = 0.37589E-01    rms(broyden)= 0.37587E-01
  rms(prec ) = 0.40757E-01
  weight for this iteration     100.00

 eigenvalues of (default mixing * dielectric matrix)
  average eigenvalue GAMMA=   1.1381
  2.5429  1.4662  1.1014  0.7195  0.7195  0.7085  0.7085

 Free energy of the ion-electron system (eV)
  ---------------------------------------------------
  alpha Z        PSCENC =       243.71444794
  Ewald energy   TEWEN  =     -2950.41138062
  -Hartree energ DENC   =     -1160.10329377
  -exchange      EXHF   =         0.00000000
  -V(xc)+E(xc)   XCENC  =        82.14775453
  PAW double counting   =      5764.62883688    -5608.60605630
  entropy T*S    EENTRO =        -0.00036237
  eigenvalues    EBANDS =      -311.60769411
  atomic energy  EATOM  =      3843.36674330
  Solvation  Ediel_sol  =         0.00000000
  ---------------------------------------------------
  free energy    TOTEN  =       -96.87100453 eV

  energy without entropy =      -96.87064216  energy(sigma->0) =      -96.87082334


--------------------------------------------------------------------------------------------------------




----------------------------------------- Iteration    1(  20)  ---------------------------------------


    POTLOK:  cpu time    0.0068: real time    0.0068
    SETDIJ:  cpu time    0.0036: real time    0.0036
    EDDIAG:  cpu time    0.4208: real time    0.4241
  RMM-DIIS:  cpu time    0.5501: real time    0.5535
    ORTHCH:  cpu time    0.0676: real time    0.0680
       DOS:  cpu time    0.0015: real time    0.0015
    CHARGE:  cpu time    0.0331: real time    0.0333
    MIXING:  cpu time    0.0004: real time    0.0004
    --------------------------------------------
      LOOP:  cpu time    1.0853: real time    1.1074

 eigenvalue-minimisations  : 10104
 total energy-change (2. order) :-0.3987119E-02  (-0.1039730E-02)
 number of electron      64.9999760 magnetization       0.9717400
 augmentation part        8.8692629 magnetization       0.6490529

 Broyden mixing:
  rms(total) = 0.15424E-01    rms(broyden)= 0.15419E-01
  rms(prec ) = 0.17222E-01
  weight for this iteration     100.00

 eigenvalues of (default mixing * dielectric matrix)
  average eigenvalue GAMMA=   1.1448
  2.7214  1.4031  1.4031  0.7900  0.7900  0.7528  0.6491  0.6491

 Free energy of the ion-electron system (eV)
  ---------------------------------------------------
  alpha Z        PSCENC =       243.71444794
  Ewald energy   TEWEN  =     -2950.41138062
  -Hartree energ DENC   =     -1161.16859263
  -exchange      EXHF   =         0.00000000
  -V(xc)+E(xc)   XCENC  =        82.24698398
  PAW double counting   =      5792.53377545    -5636.48064294
  entropy T*S    EENTRO =        -0.00026572
  eigenvalues    EBANDS =      -310.67606040
  atomic energy  EATOM  =      3843.36674330
  Solvation  Ediel_sol  =         0.00000000
  ---------------------------------------------------
  free energy    TOTEN  =       -96.87499165 eV

  energy without entropy =      -96.87472592  energy(sigma->0) =      -96.87485878


--------------------------------------------------------------------------------------------------------




----------------------------------------- Iteration    1(  21)  ---------------------------------------


    POTLOK:  cpu time    0.0064: real time    0.0064
    SETDIJ:  cpu time    0.0036: real time    0.0036
    EDDIAG:  cpu time    0.4410: real time    0.4440
  RMM-DIIS:  cpu time    0.5512: real time    0.5546
    ORTHCH:  cpu time    0.0665: real time    0.0669
       DOS:  cpu time    0.0015: real time    0.0015
    CHARGE:  cpu time    0.0322: real time    0.0323
    MIXING:  cpu time    0.0005: real time    0.0005
    --------------------------------------------
      LOOP:  cpu time    1.1043: real time    1.1255

 eigenvalue-minimisations  : 10214
 total energy-change (2. order) :-0.4273776E-03  (-0.8267825E-04)
 number of electron      64.9999760 magnetization       0.9830477
 augmentation part        8.8664561 magnetization       0.6601583

 Broyden mixing:
  rms(total) = 0.85730E-02    rms(broyden)= 0.85724E-02
  rms(prec ) = 0.89401E-02
  weight for this iteration     100.00

 eigenvalues of (default mixing * dielectric matrix)
  average eigenvalue GAMMA=   1.1840
  3.1158  1.6779  1.4121  0.9516  0.7860  0.7860  0.6683  0.6290  0.6290

 Free energy of the ion-electron system (eV)
  ---------------------------------------------------
  alpha Z        PSCENC =       243.71444794
  Ewald energy   TEWEN  =     -2950.41138062
  -Hartree energ DENC   =     -1161.12254968
  -exchange      EXHF   =         0.00000000
  -V(xc)+E(xc)   XCENC  =        82.24040839
  PAW double counting   =      5790.59330722    -5634.52786625
  entropy T*S    EENTRO =        -0.00021819
  eigenvalues    EBANDS =      -310.72831114
  atomic energy  EATOM  =      3843.36674330
  Solvation  Ediel_sol  =         0.00000000
  ---------------------------------------------------
  free energy    TOTEN  =       -96.87541902 eV

  energy without entropy =      -96.87520083  energy(sigma->0) =      -96.87530993


--------------------------------------------------------------------------------------------------------




----------------------------------------- Iteration    1(  22)  ---------------------------------------


    POTLOK:  cpu time    0.0063: real time    0.0064
    SETDIJ:  cpu time    0.0036: real time    0.0037
    EDDIAG:  cpu time    0.4182: real time    0.4211
  RMM-DIIS:  cpu time    0.5573: real time    0.5607
    ORTHCH:  cpu time    0.0659: real time    0.0664
       DOS:  cpu time    0.0015: real time    0.0015
    CHARGE:  cpu time    0.0324: real time    0.0326
    MIXING:  cpu time    0.0005: real time    0.0005
    --------------------------------------------
      LOOP:  cpu time    1.0870: real time    1.1073

 eigenvalue-minimisations  : 10331
 total energy-change (2. order) :-0.7915834E-04  (-0.1967575E-04)
 number of electron      64.9999760 magnetization       0.9918799
 augmentation part        8.8669468 magnetization       0.6684686

 Broyden mixing:
  rms(total) = 0.33979E-02    rms(broyden)= 0.33974E-02
  rms(prec ) = 0.37931E-02
  weight for this iteration     100.00

 eigenvalues of (default mixing * dielectric matrix)
  average eigenvalue GAMMA=   1.1808
  3.2338  1.7720  1.4995  0.8024  0.8024  0.9500  0.7601  0.7601  0.6139  0.6139

 Free energy of the ion-electron system (eV)
  ---------------------------------------------------
  alpha Z        PSCENC =       243.71444794
  Ewald energy   TEWEN  =     -2950.41138062
  -Hartree energ DENC   =     -1161.05855390
  -exchange      EXHF   =         0.00000000
  -V(xc)+E(xc)   XCENC  =        82.23700633
  PAW double counting   =      5789.67022469    -5633.57750030
  entropy T*S    EENTRO =        -0.00015451
  eigenvalues    EBANDS =      -310.81633112
  atomic energy  EATOM  =      3843.36674330
  Solvation  Ediel_sol  =         0.00000000
  ---------------------------------------------------
  free energy    TOTEN  =       -96.87549818 eV

  energy without entropy =      -96.87534368  energy(sigma->0) =      -96.87542093


--------------------------------------------------------------------------------------------------------




----------------------------------------- Iteration    1(  23)  ---------------------------------------


    POTLOK:  cpu time    0.0063: real time    0.0064
    SETDIJ:  cpu time    0.0037: real time    0.0037
    EDDIAG:  cpu time    0.4182: real time    0.4211
  RMM-DIIS:  cpu time    0.5532: real time    0.5568
    ORTHCH:  cpu time    0.0672: real time    0.0676
       DOS:  cpu time    0.0015: real time    0.0015
    CHARGE:  cpu time    0.0316: real time    0.0318
    MIXING:  cpu time    0.0005: real time    0.0005
    --------------------------------------------
      LOOP:  cpu time    1.0834: real time    1.1062

 eigenvalue-minimisations  : 10204
 total energy-change (2. order) :-0.2268416E-05  (-0.4087289E-05)
 number of electron      64.9999760 magnetization       0.9988924
 augmentation part        8.8675637 magnetization       0.6753883

 Broyden mixing:
  rms(total) = 0.19484E-02    rms(broyden)= 0.19483E-02
  rms(prec ) = 0.23371E-02
[...]
     38       5.1185      0.00000
     39       5.4287      0.00000
     40       5.5925      0.00000
     41       5.9797      0.00000
     42       5.9846      0.00000
     43       6.2901      0.00000
     44       6.6955      0.00000
     45       6.8067      0.00000
     46       7.1284      0.00000
     47       7.3743      0.00000
     48       7.9453      0.00000

 k-point    40 :       0.5000    0.5000    0.5000
  band No.  band energies     occupation 
      1     -15.7460      1.00000
      2     -15.7396      1.00000
      3     -15.3163      1.00000
      4     -15.2144      1.00000
      5     -15.2074      1.00000
      6     -15.1200      1.00000
      7     -14.9932      1.00000
      8     -14.8052      1.00000
      9      -3.2996      1.00000
     10      -3.2776      1.00000
     11      -3.2691      1.00000
     12      -3.2589      1.00000
     13      -3.2099      1.00000
     14      -2.9481      1.00000
     15      -2.9400      1.00000
     16      -2.7976      1.00000
     17      -2.7053      1.00000
     18      -2.3938      1.00000
     19      -2.3929      1.00000
     20      -2.2967      1.00000
     21      -1.9933      1.00000
     22      -1.9806      1.00000
     23      -1.9777      1.00000
     24      -1.3701      1.00000
     25      -0.7131      1.00000
     26      -0.6492      1.00000
     27      -0.6479      1.00000
     28      -0.1564      1.00000
     29      -0.0489      1.00000
     30       0.8707      1.00000
     31       1.1138      1.00000
     32       1.1186      1.00000
     33       4.8944      0.00000
     34       4.9009      0.00000
     35       4.9526      0.00000
     36       5.0144      0.00000
     37       5.0147      0.00000
     38       5.1219      0.00000
     39       5.6056      0.00000
     40       5.6091      0.00000
     41       6.1436      0.00000
     42       6.1459      0.00000
     43       6.4955      0.00000
     44       6.8162      0.00000
     45       6.9576      0.00000
     46       7.1983      0.00000
     47       7.6153      0.00000
     48       7.7720      0.00000


--------------------------------------------------------------------------------------------------------


 soft charge-density along one line, spin component           1
         0         1         2         3         4         5         6         7         8         9
 total charge-density along one line
 
 soft charge-density along one line, spin component           2
         0         1         2         3         4         5         6         7         8         9
 total charge-density along one line
 
 pseudopotential strength for first ion, spin component:           1
 -4.426   0.001  -0.000  -0.001   0.000  -4.614   0.001  -0.000
  0.001  -3.809   0.000  -0.000  -0.000   0.001  -3.942   0.000
 -0.000   0.000  -4.495  -0.000  -0.000  -0.000   0.000  -4.693
 -0.001  -0.000  -0.000  -3.810  -0.000  -0.001  -0.000  -0.000
  0.000  -0.000  -0.000  -0.000  -4.404   0.000  -0.000  -0.000
 -4.614   0.001  -0.000  -0.001   0.000  -4.710   0.001  -0.000
  0.001  -3.942   0.000  -0.000  -0.000   0.001  -3.965   0.000
 -0.000   0.000  -4.693  -0.000  -0.000  -0.000   0.000  -4.799
 -0.001  -0.000  -0.000  -3.943  -0.000  -0.001  -0.000  -0.001
  0.000  -0.000  -0.000  -0.000  -4.583   0.000  -0.000  -0.000
  0.000   0.000   0.008  -0.000   0.000   0.000   0.000   0.010
 -0.000  -0.000  -0.012   0.000  -0.000  -0.000  -0.000  -0.015
 -0.000   0.004   0.000   0.000   0.000  -0.000   0.005   0.000
  0.000  -0.000  -0.000  -0.000  -0.005   0.000  -0.000  -0.000
  0.000   0.000   0.000  -0.005  -0.000   0.000   0.000   0.000
 pseudopotential strength for first ion, spin component:           2
 -3.452  -0.000   0.000   0.000   0.000  -3.526  -0.000   0.000
 -0.000  -3.698   0.000  -0.000  -0.000  -0.000  -3.813   0.000
  0.000   0.000  -4.385  -0.000  -0.000   0.000   0.000  -4.565
  0.000  -0.000  -0.000  -3.699  -0.000   0.000  -0.000  -0.000
  0.000  -0.000  -0.000  -0.000  -4.317   0.000  -0.000  -0.000
 -3.526  -0.000   0.000   0.000   0.000  -3.480  -0.000   0.000
 -0.000  -3.813   0.000  -0.000  -0.000  -0.000  -3.815   0.000
  0.000   0.000  -4.565  -0.000  -0.000   0.000   0.000  -4.651
  0.000  -0.000  -0.000  -3.815  -0.000   0.000  -0.000  -0.001
  0.000  -0.000  -0.000  -0.000  -4.480   0.000  -0.000  -0.000
  0.000  -0.000   0.033   0.000   0.000   0.000  -0.000   0.039
 -0.000   0.000  -0.068  -0.000  -0.000  -0.000   0.000  -0.079
 -0.000   0.004   0.000   0.000   0.000  -0.000   0.004   0.000
  0.000  -0.000  -0.000  -0.000  -0.004   0.000  -0.000  -0.000
 -0.000   0.000   0.000  -0.004  -0.000  -0.000   0.000   0.000
 total augmentation occupancy for first ion, spin component:           1
  2.879   0.002  -0.000  -0.002  -0.000  -1.781  -0.001   0.000   0.001   0.000   0.000  -0.000   0.000   0.000   0.001
  0.002   3.397  -0.004   0.000   0.002  -0.001  -2.231   0.003  -0.000  -0.001  -0.002  -0.000   0.501   0.001  -0.000
 -0.000  -0.004  10.337   0.006  -0.000   0.000   0.003  -7.045  -0.004   0.001  -0.218  -0.021   0.001   0.007   0.002
 -0.002   0.000   0.006   3.400   0.004   0.001  -0.000  -0.004  -2.233  -0.002   0.003   0.000  -0.000   0.002  -0.500
 -0.000   0.002  -0.000   0.004  12.049   0.000  -0.001   0.001  -0.002  -8.390   0.001   0.000   0.001  -0.390  -0.002
 -1.781  -0.001   0.000   0.001   0.000   1.313   0.001  -0.000  -0.001  -0.000  -0.000   0.000  -0.000  -0.000  -0.001
 -0.001  -2.231   0.003  -0.000  -0.001   0.001   1.482  -0.002   0.000   0.001   0.002   0.000  -0.359  -0.001   0.000
  0.000   0.003  -7.045  -0.004   0.001  -0.000  -0.002   4.880   0.003  -0.001   0.155   0.014  -0.001  -0.004  -0.001
  0.001  -0.000  -0.004  -2.233  -0.002  -0.001   0.000   0.003   1.482   0.002  -0.002  -0.000   0.000  -0.001   0.358
  0.000  -0.001   0.001  -0.002  -8.390  -0.000   0.001  -0.001   0.002   5.917  -0.001  -0.000  -0.001   0.296   0.001
  0.000  -0.002  -0.218   0.003   0.001  -0.000   0.002   0.155  -0.002  -0.001   2.072   0.125  -0.000   0.002  -0.000
 -0.000  -0.000  -0.021   0.000   0.000   0.000   0.000   0.014  -0.000  -0.000   0.125   0.012  -0.000   0.000  -0.000
  0.000   0.501   0.001  -0.000   0.001  -0.000  -0.359  -0.001   0.000  -0.001  -0.000  -0.000   0.556  -0.000   0.000
  0.000   0.001   0.007   0.002  -0.390  -0.000  -0.001  -0.004  -0.001   0.296   0.002   0.000  -0.000   0.510   0.000
  0.001  -0.000   0.002  -0.500  -0.002  -0.001   0.000  -0.001   0.358   0.001  -0.000  -0.000   0.000   0.000   0.556
 total augmentation occupancy for first ion, spin component:           2
  0.078  -0.000   0.000   0.000  -0.000  -0.008   0.000  -0.000  -0.000   0.000   0.000  -0.000  -0.000   0.000  -0.000
 -0.000  -0.007   0.000   0.000   0.000   0.000   0.015  -0.000   0.000   0.000   0.000  -0.000  -0.002  -0.000   0.000
  0.000   0.000  -0.055  -0.000  -0.000  -0.000  -0.000   0.057   0.000   0.000  -0.005   0.005  -0.000  -0.000  -0.000
  0.000   0.000  -0.000  -0.007  -0.000  -0.000  -0.000   0.000   0.015   0.000  -0.000   0.000   0.000  -0.000   0.002
 -0.000   0.000  -0.000  -0.000  -0.073   0.000   0.000   0.000   0.000   0.067   0.000   0.000  -0.000   0.002   0.000
 -0.008   0.000  -0.000  -0.000   0.000   0.188  -0.000   0.000   0.000  -0.000  -0.000   0.000   0.000  -0.000  -0.000
  0.000   0.015  -0.000  -0.000   0.000  -0.000  -0.014   0.000  -0.000  -0.000  -0.000   0.000  -0.000   0.000   0.000
 -0.000  -0.000   0.057   0.000   0.000   0.000   0.000  -0.049  -0.000  -0.000   0.005  -0.003   0.000   0.000   0.000
 -0.000   0.000   0.000   0.015   0.000   0.000  -0.000  -0.000  -0.014  -0.000   0.000  -0.000   0.000   0.000   0.000
  0.000   0.000   0.000   0.000   0.067  -0.000  -0.000  -0.000  -0.000  -0.054  -0.000   0.000   0.000  -0.002  -0.000
  0.000   0.000  -0.005  -0.000   0.000  -0.000  -0.000   0.005   0.000  -0.000   0.001  -0.003  -0.000  -0.000  -0.000
 -0.000  -0.000   0.005   0.000   0.000   0.000   0.000  -0.003  -0.000   0.000  -0.003  -0.000  -0.000   0.000   0.000
 -0.000  -0.002  -0.000   0.000  -0.000   0.000  -0.000   0.000   0.000   0.000  -0.000  -0.000   0.006   0.000   0.000
  0.000  -0.000  -0.000  -0.000   0.002  -0.000   0.000   0.000   0.000  -0.002  -0.000   0.000   0.000   0.001  -0.000
 -0.000   0.000  -0.000   0.002   0.000  -0.000   0.000   0.000   0.000  -0.000  -0.000   0.000   0.000  -0.000   0.006


------------------------ aborting loop because EDIFF is reached ----------------------------------------


 


 total charge     
 
# of ion     s       p       d       tot
----------------------------------------
  1        0.518   0.987   2.416   3.921
  2        0.544   1.052   2.424   4.020
  3        0.522   0.942   2.564   4.028
  4        0.545   1.054   2.427   4.025
  5        1.569   3.485   0.000   5.054
  6        1.566   3.486   0.000   5.052
  7        1.569   3.484   0.000   5.053
  8        1.565   3.479   0.000   5.044
  9        1.559   3.545   0.000   5.104
 10        1.565   3.479   0.000   5.044
 11        1.559   3.545   0.000   5.105
 12        1.566   3.486   0.000   5.052
 13        0.107   0.230   0.000   0.337
------------------------------------------------
tot       14.754  32.254   9.830  56.838
 


 magnetization (x)
 
# of ion     s       p       d       tot
----------------------------------------
  1        0.002   0.009   0.266   0.277
  2        0.000   0.002   0.066   0.069
  3        0.005   0.018   0.676   0.699
  4        0.000   0.002   0.066   0.069
  5       -0.001  -0.024   0.000  -0.025
  6       -0.000  -0.008   0.000  -0.009
  7       -0.001  -0.024   0.000  -0.025
  8       -0.000  -0.012   0.000  -0.012
  9       -0.001  -0.019   0.000  -0.021
 10       -0.000  -0.012   0.000  -0.012
 11       -0.001  -0.019   0.000  -0.021
 12       -0.000  -0.008   0.000  -0.009
 13       -0.002  -0.002   0.000  -0.003
------------------------------------------------
tot        0.002  -0.097   1.073   0.978
 
    CHARGE:  cpu time    0.0321: real time    0.0323
    FORLOC:  cpu time    0.0002: real time    0.0002
    FORNL :  cpu time    0.2273: real time    0.2288
    STRESS:  cpu time    0.6805: real time    0.6844
    FORCOR:  cpu time    0.0063: real time    0.0063
    FORHAR:  cpu time    0.0008: real time    0.0008
    MIXING:  cpu time    0.0006: real time    0.0006
    OFIELD:  cpu time    0.0000: real time    0.0000

 ---------------------------------------------------------------------------------------------

         DFTD3 V3.0 Rev 1        
 IVDW         = 12
 DF pbe       
 parameters
 VDW_S6       =    1.0000
 VDW_S8       =    0.7875
 VDW_A1       =    0.4289
 VDW_A2       =    4.4407
 k1-k3        =   16.0000    1.3333   -4.0000
 VDW_RADIUS   =   50.2022 A
 VDW_CNRADIUS =   21.1671 A
 Edisp (eV)   -3.04989

 E6    (eV) :    -1.8327
 E8    (eV) :    -1.2172
 % E8        : 39.91
    FORVDW:  cpu time    0.0660: real time    0.0684

  FORCE on cell =-STRESS in cart. coord.  units (eV):
  Direction    XX          YY          ZZ          XY          YZ          ZX
  --------------------------------------------------------------------------------------
  Alpha Z   243.71445   243.71445   243.71445
  Ewald   -1012.00752 -1013.92253  -924.48774    -0.00004    -0.04127     0.13224
  Hartree   374.27091   374.02396   412.73866    -0.00006     0.01349     0.04759
  E(xc)    -309.07844  -309.06192  -307.53415    -0.00002     0.00247    -0.00006
  Local    -347.58680  -345.65622  -465.59062     0.00006     0.01909    -0.16711
  n-local  -181.00517  -181.08425  -179.43707     0.00270     0.01430     0.02848
  augment    75.52577    75.53748    72.85597     0.00021    -0.00170    -0.00243
  Kinetic  1167.00445  1167.10672  1152.24107     0.00027    -0.00070    -0.00232
  Fock        0.00000     0.00000     0.00000     0.00000     0.00000     0.00000
  vdW        -3.29543    -3.29629    -3.21784     0.00000     0.00002     0.00002
  -------------------------------------------------------------------------------------
  Total       7.54223     7.36139     1.28272     0.00312     0.00570     0.03639
  in kB      83.85513    81.84455    14.26143     0.03469     0.06339     0.40459
  external pressure =       59.99 kB  Pullay stress =        0.00 kB


 VOLUME and BASIS-vectors are now :
 -----------------------------------------------------------------------------
  energy-cutoff  :      600.00
  volume of cell :      144.11
      direct lattice vectors                 reciprocal lattice vectors
     3.881571359  0.000000000  0.000000000     0.257627622 -0.000000000  0.000000000
     0.000000000  3.881571359  0.000000000     0.000000000  0.257627622  0.000000000
     0.000000000  0.000000000  9.564575708    -0.000000000 -0.000000000  0.104552468

  length of vectors
     3.881571359  3.881571359  9.564575708     0.257627622  0.257627622  0.104552468


 FORCES acting on ions
    electron-ion (+dipol)            ewald-force                    non-local-force                 convergence-correction
 -----------------------------------------------------------------------------------------------
   0.641E-01 0.715E-01 0.128E+00   -.586E-01 -.692E-01 -.107E+00   -.637E-02 0.839E-02 -.145E-01   -.117E-04 -.178E-04 0.400E-04
   -.719E-01 0.339E-01 0.199E+01   0.723E-01 -.303E-01 -.207E+01   -.653E-02 0.470E-03 0.323E-01   -.352E-04 0.928E-05 0.547E-02
   -.923E-01 -.727E-01 0.328E+00   0.916E-01 0.699E-01 -.327E+00   -.129E-01 -.566E-02 0.116E-01   -.238E-04 0.154E-04 -.288E-04
   0.617E-01 -.591E-01 -.237E+01   -.598E-01 0.562E-01 0.243E+01   -.333E-01 -.402E-02 -.593E-01   -.311E-04 0.661E-05 -.547E-02
   -.167E-01 0.642E-01 -.472E+02   -.331E-02 -.738E-01 0.568E+02   0.173E-01 0.838E-02 -.956E+01   -.242E-04 0.248E-06 -.280E-03
   -.996E-01 -.108E-01 -.330E+02   0.143E+00 0.714E-03 0.398E+02   -.458E-01 0.144E-01 -.681E+01   -.839E-04 0.176E-04 0.820E-02
   0.730E-01 -.450E-01 0.470E+02   -.813E-01 0.380E-01 -.564E+02   0.617E-02 0.262E-02 0.950E+01   0.214E-04 -.598E-04 0.388E-03
   0.572E-01 0.542E-01 0.465E+02   -.797E-01 -.650E-01 -.527E+02   0.253E-01 0.155E-01 0.622E+01   0.211E-03 0.110E-03 0.115E-01
   0.743E-01 -.678E-01 -.358E+02   -.868E-01 0.795E-01 0.399E+02   0.139E-01 -.128E-01 -.404E+01   -.383E-03 0.488E-04 0.538E-02
   0.647E-01 0.772E-02 -.467E+02   -.797E-01 0.153E-01 0.528E+02   0.277E-01 -.227E-01 -.616E+01   -.222E-03 -.469E-04 -.115E-01
   -.778E-01 0.452E-01 0.369E+02   0.931E-01 -.473E-01 -.410E+02   -.168E-01 0.268E-02 0.410E+01   -.139E-03 0.126E-03 -.555E-02
   -.541E-01 -.376E-01 0.323E+02   0.650E-01 0.381E-01 -.390E+02   -.882E-02 0.176E-02 0.673E+01   0.735E-04 -.564E-04 -.820E-02
   0.163E-01 0.127E-01 0.319E-01   -.157E-01 -.120E-01 -.489E-01   -.779E-03 -.113E-02 0.122E-01   -.344E-08 -.278E-06 -.239E-04
 -----------------------------------------------------------------------------------------------
   -.119E-02 -.355E-02 0.685E-02   -.767E-14 -.545E-14 -.462E-13   -.409E-01 0.786E-02 -.337E-01   -.647E-03 0.152E-03 -.654E-04
 
 
 POSITION                                       TOTAL-FORCE (eV/Angst)
 -----------------------------------------------------------------------------------
      1.93329      1.93668      4.76637         0.002342      0.010267      0.008319
      1.93569      3.87741      7.08733        -0.002889      0.003747     -0.027124
      3.87652      3.87982      9.54764        -0.010334     -0.008714      0.015587
      3.87467      1.93965      2.44726        -0.028176     -0.007241     -0.014453
      3.87439      1.93727      4.40553         0.000552     -0.001602     -0.010493
      1.93668      1.93679      6.80993         0.000766      0.003988     -0.000588
      1.93369      3.87762      5.12734         0.001229     -0.004830      0.020711
      3.87690      3.87752      7.49868         0.006227      0.004445      0.007562
      1.93602      3.87958      9.14394         0.004302     -0.001317     -0.000205
      3.87448      3.88001      2.03344         0.015792     -0.000122     -0.007373
      3.87661      1.93903      0.39103         0.001762      0.000346      0.001077
      1.93374      1.93887      2.71987         0.005418      0.001818      0.009669
      1.93598      1.93892      0.00006         0.003010     -0.000786     -0.002688
 -----------------------------------------------------------------------------------
    total drift:                               -0.042704      0.004468     -0.026931


--------------------------------------------------------------------------------------------------------



  FREE ENERGIE OF THE ION-ELECTRON SYSTEM (eV)
  ---------------------------------------------------
  free  energy   TOTEN  =       -99.92538719 eV

  energy  without entropy=      -99.92528209  energy(sigma->0) =      -99.92533464
 


--------------------------------------------------------------------------------------------------------


    POTLOK:  cpu time    0.0115: real time    0.0116


--------------------------------------------------------------------------------------------------------


 stress matrix after NEB project (eV)
      7.54223      0.00312      0.03639
      0.00312      7.36139      0.00570
      0.03639      0.00570      1.28272
  FORCES: max atom, RMS     0.032484    0.016618
  FORCE total and by dimension    0.059916    0.028176
  Stress total and by dimension   10.617133    7.542233
     LOOP+:  cpu time   25.7324: real time   26.2812
    4ORBIT:  cpu time    0.0000: real time    0.0000
 


 total charge     
 
# of ion     s       p       d       tot
----------------------------------------
  1        0.518   0.987   2.416   3.921
  2        0.544   1.052   2.424   4.020
  3        0.522   0.942   2.564   4.028
  4        0.545   1.054   2.427   4.025
  5        1.569   3.485   0.000   5.054
  6        1.566   3.486   0.000   5.052
  7        1.569   3.484   0.000   5.053
  8        1.565   3.479   0.000   5.044
  9        1.559   3.545   0.000   5.104
 10        1.565   3.479   0.000   5.044
 11        1.559   3.545   0.000   5.105
 12        1.566   3.486   0.000   5.052
 13        0.107   0.230   0.000   0.337
------------------------------------------------
tot       14.754  32.254   9.830  56.838
 


 magnetization (x)
 
# of ion     s       p       d       tot
----------------------------------------
  1        0.002   0.009   0.266   0.277
  2        0.000   0.002   0.066   0.069
  3        0.005   0.018   0.676   0.699
  4        0.000   0.002   0.066   0.069
  5       -0.001  -0.024   0.000  -0.025
  6       -0.000  -0.008   0.000  -0.009
  7       -0.001  -0.024   0.000  -0.025
  8       -0.000  -0.012   0.000  -0.012
  9       -0.001  -0.019   0.000  -0.021
 10       -0.000  -0.012   0.000  -0.012
 11       -0.001  -0.019   0.000  -0.021
 12       -0.000  -0.008   0.000  -0.009
 13       -0.002  -0.002   0.000  -0.003
------------------------------------------------
tot        0.002  -0.097   1.073   0.978
 

 total amount of memory used by VASP on root node    39114. kBytes
========================================================================

   base      :      30000. kBytes
   nonlr-proj:       2448. kBytes
   fftplans  :        480. kBytes
   grid      :       1228. kBytes
   one-center:         43. kBytes
   wavefun   :       4915. kBytes
 
  
  
 General timing and accounting informations for this job:
 ========================================================
  
                  Total CPU time used (sec):       32.526
                            User time (sec):       29.488
                          System time (sec):        3.038
                         Elapsed time (sec):       54.478
  
                   Maximum memory used (kb):      401648.
                   Average memory used (kb):           0.
  
                          Minor page faults:        69823
                          Major page faults:          207
                 Voluntary context switches:         5795
