 vasp.5.4.1 05Feb16 (build Apr 23 2022 14:15:44) complex                        
  
 executed on           IFC91_ompi date 2024.12.13  21:12:02
 running on   48 total cores
 distrk:  each k-point on   48 cores,    1 groups
 distr:  one band on NCORES_PER_BAND=   8 cores,    6 groups


--------------------------------------------------------------------------------------------------------


 INCAR:
 POTCAR:    PAW_PBE Co 02Aug2007                  
 POTCAR:    PAW_PBE O 08Apr2002                   
 POTCAR:    PAW_PBE Li 17Jan2003                  
 POTCAR:    PAW_PBE Co 02Aug2007                  
   VRHFIN =Co: d8 s1                                                            
   LEXCH  = PE                                                                  
   EATOM  =   813.3670 eV,   59.7808 Ry                                         
                                                                                
   TITEL  = PAW_PBE Co 02Aug2007                                                
   LULTRA =        F    use ultrasoft PP ?                                      
   IUNSCR =        1    unscreen: 0-lin 1-nonlin 2-no                           
   RPACOR =    2.000    partial core radius                                     
   POMASS =   58.933; ZVAL   =    9.000    mass and valenz                      
   RCORE  =    2.300    outmost cutoff radius                                   
   RWIGS  =    2.460; RWIGS  =    1.302    wigner-seitz radius (au A)           
   ENMAX  =  267.968; ENMIN  =  200.976 eV                                      
   RCLOC  =    1.203    cutoff for local pot                                    
   LCOR   =        T    correct aug charges                                     
   LPAW   =        T    paw PP                                                  
   EAUG   =  477.818                                                            
   DEXC   =    0.000                                                            
   RMAX   =    2.360    core radius for proj-oper                               
   RAUG   =    1.300    factor for augmentation sphere                          
   RDEP   =    2.393    radius for radial grids                                 
   RDEPT  =    1.864    core radius for aug-charge                              
                                                                                
   Atomic configuration                                                         
    9 entries                                                                   
     n  l   j            E        occ.                                          
     1  0  0.50     -7587.6674   2.0000                                         
     2  0  0.50      -893.6084   2.0000                                         
     2  1  1.50      -764.5805   6.0000                                         
     3  0  0.50       -97.5973   2.0000                                         
     3  1  1.50       -60.9648   6.0000                                         
     3  2  2.50        -4.2382   8.0000                                         
     4  0  0.50        -4.3746   1.0000                                         
     4  1  1.50        -4.0817   0.0000                                         
     4  3  2.50        -1.3606   0.0000                                         
   Description                                                                  
     l       E           TYP  RCUT    TYP  RCUT                                 
     2     -4.2382362     23  2.300                                             
     2     -5.5988188     23  2.300                                             
     0     -4.3745797     23  2.300                                             
     0      5.7660125     23  2.300                                             
     1     -2.7211652     23  2.300                                             
     1     16.9860234     23  2.300                                             
  local pseudopotential read in
  partial core-charges read in
  partial kinetic energy density read in
  atomic valenz-charges read in
  non local Contribution for L=           2  read in
    real space projection operators read in
  non local Contribution for L=           2  read in
    real space projection operators read in
  non local Contribution for L=           0  read in
    real space projection operators read in
  non local Contribution for L=           0  read in
    real space projection operators read in
  non local Contribution for L=           1  read in
    real space projection operators read in
  non local Contribution for L=           1  read in
    real space projection operators read in
    PAW grid and wavefunctions read in
 
   number of l-projection  operators is LMAX  =           6
   number of lm-projection operators is LMMAX =          18
 
 POTCAR:    PAW_PBE O 08Apr2002                   
   VRHFIN =O: s2p4                                                              
   LEXCH  = PE                                                                  
   EATOM  =   432.3788 eV,   31.7789 Ry                                         
                                                                                
   TITEL  = PAW_PBE O 08Apr2002                                                 
   LULTRA =        F    use ultrasoft PP ?                                      
   IUNSCR =        1    unscreen: 0-lin 1-nonlin 2-no                           
   RPACOR =    1.200    partial core radius                                     
   POMASS =   16.000; ZVAL   =    6.000    mass and valenz                      
   RCORE  =    1.520    outmost cutoff radius                                   
   RWIGS  =    1.550; RWIGS  =    0.820    wigner-seitz radius (au A)           
   ENMAX  =  400.000; ENMIN  =  300.000 eV                                      
   ICORE  =        2    local potential                                         
   LCOR   =        T    correct aug charges                                     
   LPAW   =        T    paw PP                                                  
   EAUG   =  605.392                                                            
   DEXC   =    0.000                                                            
   RMAX   =    1.553    core radius for proj-oper                               
   RAUG   =    1.300    factor for augmentation sphere                          
   RDEP   =    1.550    radius for radial grids                                 
   RDEPT  =    1.329    core radius for aug-charge                              
                                                                                
   Atomic configuration                                                         
    4 entries                                                                   
     n  l   j            E        occ.                                          
     1  0  0.50      -514.6923   2.0000                                         
     2  0  0.50       -23.9615   2.0000                                         
     2  1  0.50        -9.0305   4.0000                                         
     3  2  1.50        -9.5241   0.0000                                         
   Description                                                                  
     l       E           TYP  RCUT    TYP  RCUT                                 
     0    -23.9615318     23  1.200                                             
     0     -9.5240782     23  1.200                                             
     1     -9.0304911     23  1.520                                             
     1      8.1634956     23  1.520                                             
     2     -9.5240782      7  1.500                                             
  local pseudopotential read in
  partial core-charges read in
  partial kinetic energy density read in
  kinetic energy density of atom read in
  atomic valenz-charges read in
  non local Contribution for L=           0  read in
    real space projection operators read in
  non local Contribution for L=           0  read in
    real space projection operators read in
  non local Contribution for L=           1  read in
    real space projection operators read in
  non local Contribution for L=           1  read in
    real space projection operators read in
    PAW grid and wavefunctions read in
 
   number of l-projection  operators is LMAX  =           4
   number of lm-projection operators is LMMAX =           8
 
 POTCAR:    PAW_PBE Li 17Jan2003                  
   VRHFIN =Li: s1p0                                                             
   LEXCH  = PE                                                                  
   EATOM  =     5.3001 eV,    0.3895 Ry                                         
                                                                                
   TITEL  = PAW_PBE Li 17Jan2003                                                
   LULTRA =        F    use ultrasoft PP ?                                      
   IUNSCR =        1    unscreen: 0-lin 1-nonlin 2-no                           
   RPACOR =    1.500    partial core radius                                     
   POMASS =    7.010; ZVAL   =    1.000    mass and valenz                      
   RCORE  =    2.050    outmost cutoff radius                                   
   RWIGS  =    2.600; RWIGS  =    1.376    wigner-seitz radius (au A)           
   ENMAX  =  140.000; ENMIN  =  100.000 eV                                      
   ICORE  =        2    local potential                                         
   LCOR   =        T    correct aug charges                                     
   LPAW   =        T    paw PP                                                  
   EAUG   =  331.638                                                            
   DEXC   =    0.000                                                            
   RMAX   =    2.098    core radius for proj-oper                               
   RAUG   =    1.300    factor for augmentation sphere                          
   RDEP   =    2.094    radius for radial grids                                 
   RDEPT  =    1.810    core radius for aug-charge                              
                                                                                
   Atomic configuration                                                         
    4 entries                                                                   
     n  l   j            E        occ.                                          
     1  0  0.50       -51.8549   2.0000                                         
     2  0  0.50        -2.8742   1.0000                                         
     2  1  0.50        -1.3606   0.0000                                         
     3  2  1.50        -1.3606   0.0000                                         
   Description                                                                  
     l       E           TYP  RCUT    TYP  RCUT                                 
     0     -2.8742052     23  2.050                                             
     0     27.2116520     23  2.050                                             
     1     -1.3605826     23  2.050                                             
     2     -1.3605826     23  2.050                                             
  local pseudopotential read in
  partial core-charges read in
  partial kinetic energy density read in
  atomic valenz-charges read in
  non local Contribution for L=           0  read in
    real space projection operators read in
  non local Contribution for L=           0  read in
    real space projection operators read in
  non local Contribution for L=           1  read in
    real space projection operators read in
    PAW grid and wavefunctions read in
 
   number of l-projection  operators is LMAX  =           3
   number of lm-projection operators is LMMAX =           5
 
 Optimization of the real space projectors (new method)

 maximal supplied QI-value         = 16.25
 optimisation between [QCUT,QGAM] = [ 12.51, 31.37] = [ 43.85,275.49] Ry 
 Optimized for a Real-space Cutoff    1.29 Angstroem

   l    n(q)    QCUT    max X(q) W(low)/X(q) W(high)/X(q)  e(spline) 
   2     11    12.514    65.824    0.76E-04    0.62E-04    0.32E-05
   2     11    12.514    61.429    0.76E-04    0.61E-04    0.32E-05
   0     12    12.514    56.174    0.65E-04    0.74E-04    0.10E-04
   0     12    12.514    31.263    0.56E-04    0.67E-04    0.93E-05
   1     12    12.514    19.828    0.16E-03    0.79E-04    0.14E-05
   1     12    12.514    15.139    0.14E-03    0.66E-04    0.12E-05
 Optimization of the real space projectors (new method)

 maximal supplied QI-value         = 24.76
 optimisation between [QCUT,QGAM] = [ 12.38, 31.19] = [ 42.90,272.45] Ry 
 Optimized for a Real-space Cutoff    0.88 Angstroem

   l    n(q)    QCUT    max X(q) W(low)/X(q) W(high)/X(q)  e(spline) 
   0      8    12.378    20.381    0.23E-03    0.15E-03    0.14E-06
   0      8    12.378    15.268    0.25E-03    0.16E-03    0.15E-06
   1      8    12.378     5.964    0.24E-03    0.11E-03    0.16E-06
   1      8    12.378     5.382    0.21E-03    0.84E-04    0.13E-06
 Optimization of the real space projectors (new method)

 maximal supplied QI-value         = 18.33
 optimisation between [QCUT,QGAM] = [ 12.46, 31.34] = [ 43.51,275.13] Ry 
 Optimized for a Real-space Cutoff    1.08 Angstroem

   l    n(q)    QCUT    max X(q) W(low)/X(q) W(high)/X(q)  e(spline) 
   0     10    12.465    33.825    0.30E-03    0.25E-03    0.10E-05
   0     10    12.465     8.944    0.22E-03    0.19E-03    0.75E-06
   1     10    12.465     4.214    0.34E-03    0.17E-03    0.14E-05
  PAW_PBE Co 02Aug2007                  :
 energy of atom  1       EATOM= -813.3670
 kinetic energy error for atom=    0.0018 (will be added to EATOM!!)
  PAW_PBE O 08Apr2002                   :
 energy of atom  2       EATOM= -432.3788
 kinetic energy error for atom=    0.0168 (will be added to EATOM!!)
  PAW_PBE Li 17Jan2003                  :
 energy of atom  3       EATOM=   -5.3001
 kinetic energy error for atom=    0.0000 (will be added to EATOM!!)
 
 
 POSCAR: Co O  Li                                
  positions in cartesian coordinates
  No initial velocities read in
 exchange correlation table for  LEXCH =        8
   RHO(1)=    0.500       N(1)  =     2000
   RHO(2)=  100.500       N(2)  =     4000

 VTST: version 3.1, (03/28/14)

 CHAIN: initializing optimizer
 
 OPT: Using VASP Dynamics algorithm
 CHAIN: Read ICHAIN            0
 
 POSCAR: Co O  Li                                
  positions in cartesian coordinates
  No initial velocities read in
 


--------------------------------------------------------------------------------------------------------


 ion  position               nearest neighbor table
   1  0.184  0.340  0.166-  32 1.87  25 1.87  19 1.88  20 1.88  13 1.88  14 1.88  10 2.79  10 2.79
                             7 2.79   7 2.80   4 2.80   4 2.81  38 2.89  37 2.90  40 2.90  41 2.92
   2  0.024  0.009  0.497-  28 1.89  33 1.89  34 1.89  16 1.90  21 1.92  15 1.92  11 2.79   8 2.79
                            11 2.80   8 2.80   5 2.80   5 2.81  38 2.84  39 2.87  42 2.90
   3  0.357  0.176  0.837-  30 1.86  17 1.88  35 1.88  29 1.88  24 1.90  18 1.90  12 2.79   9 2.79
                            12 2.80   9 2.80   6 2.80   6 2.81  42 2.89  37 2.91  39 2.92
   4  0.184  0.840  0.166-  31 1.87  26 1.87  13 1.88  20 1.88  19 1.88  14 1.88   7 2.79   7 2.79
                            10 2.79  10 2.80   1 2.80   1 2.81  38 2.87  40 2.90  37 2.90  41 2.91
   5  0.024  0.509  0.497-  28 1.86  34 1.88  27 1.88  21 1.89  22 1.89  15 1.91   8 2.79  11 2.79
                             8 2.80   2 2.80  11 2.80   2 2.81  41 2.87  39 2.89  42 2.92
   6  0.357  0.676  0.837-  36 1.86  23 1.87  35 1.88  29 1.88  18 1.90  24 1.90   9 2.79  12 2.79
                             9 2.80  12 2.80   3 2.80   3 2.81  42 2.90  40 2.91  39 2.93
   7  0.684  0.340  0.166-  20 1.91  13 1.91  26 1.91  32 1.91  31 1.92  25 1.92  40 2.79   4 2.79
                             4 2.79   1 2.79   1 2.80  10 2.80  10 2.81  38 2.83
   8  0.526  0.010  0.503-  33 1.89  27 1.89  28 1.89  21 1.90  16 1.91  22 1.92   5 2.79   2 2.79
                             5 2.80   2 2.80  11 2.80  11 2.81  42 2.83  41 2.86  38 2.89
   9  0.856  0.175  0.830-  30 1.89  36 1.89  29 1.90  18 1.91  23 1.92  17 1.92  39 2.79   6 2.79
                             3 2.79   6 2.80   3 2.80  12 2.81  12 2.81  37 2.86  40 2.87
  10  0.684  0.840  0.166-  19 1.91  14 1.91  32 1.91  26 1.92  25 1.92  31 1.92  37 2.79   1 2.79
                             1 2.79   4 2.79   4 2.80  41 2.80   7 2.80   7 2.81
  11  0.526  0.510  0.503-  33 1.86  27 1.88  34 1.88  16 1.89  15 1.89  22 1.90   2 2.79   5 2.79
                             2 2.80   8 2.80   5 2.80   8 2.81  39 2.86  41 2.88  38 2.92
  12  0.856  0.675  0.830-  30 1.89  36 1.89  35 1.90  24 1.91  17 1.92  23 1.92   3 2.79   6 2.79
                             3 2.80   6 2.80   9 2.81   9 2.81  42 2.82  40 2.86  37 2.87
  13  0.345  0.171  0.098-   4 1.88   1 1.88   7 1.91  37 2.20
  14  0.023  0.009  0.235-   1 1.88   4 1.88  10 1.91  38 2.15
  15  0.203  0.351  0.428-  11 1.89   5 1.91   2 1.92  38 2.11  41 2.11
  16  0.352  0.176  0.571-  11 1.89   2 1.90   8 1.91  42 2.10  39 2.11
  17  0.038  0.016  0.762-   3 1.88  12 1.92   9 1.92  39 2.05  42 2.06
  18  0.183  0.338  0.905-   6 1.90   3 1.90   9 1.91  37 2.15  40 2.16
  19  0.345  0.671  0.098-   1 1.88   4 1.88  10 1.91  40 2.20
  20  0.023  0.509  0.235-   4 1.88   1 1.88   7 1.91  41 2.22
  21  0.198  0.843  0.429-   5 1.89   8 1.90   2 1.92  38 2.10  41 2.11
  22  0.347  0.668  0.572-   5 1.89  11 1.90   8 1.92  39 2.11  42 2.11
  23  0.038  0.517  0.762-   6 1.87  12 1.92   9 1.92  39 2.07  42 2.08
  24  0.183  0.839  0.905-   3 1.90   6 1.90  12 1.91  40 2.15  37 2.16
  25  0.857  0.177  0.096-   1 1.87  10 1.92   7 1.92  40 2.06  37 2.06
  26  0.511  0.003  0.237-   4 1.87   7 1.91  10 1.92  41 2.06  38 2.08
  27  0.684  0.341  0.433-  11 1.88   5 1.88   8 1.89  38 2.11
  28  0.869  0.185  0.567-   5 1.86   2 1.89   8 1.89  39 2.05
  29  0.512  0.003  0.766-   6 1.88   3 1.88   9 1.90  42 2.08
  30  0.694  0.344  0.900-   3 1.86   9 1.89  12 1.89  40 2.02
  31  0.857  0.677  0.096-   4 1.87   7 1.92  10 1.92  37 2.05  40 2.06
  32  0.511  0.503  0.237-   1 1.87   7 1.91  10 1.91  41 2.08  38 2.10
  33  0.681  0.834  0.433-  11 1.86   8 1.89   2 1.89  41 2.03
  34  0.866  0.677  0.567-   5 1.88  11 1.88   2 1.89  42 2.12
  35  0.512  0.503  0.766-   3 1.88   6 1.88  12 1.90  39 2.15
  36  0.694  0.844  0.900-   6 1.86   9 1.89  12 1.89  37 2.02
  37  0.991  0.994  1.000-  36 2.02  31 2.05  25 2.06  18 2.15  24 2.16  13 2.20  10 2.79  40 2.81
                            40 2.81   9 2.86  12 2.87   1 2.90   4 2.90   3 2.91
  38  0.361  0.174  0.333-  26 2.08  21 2.10  32 2.10  27 2.11  15 2.11  14 2.15  41 2.78   7 2.83
                             2 2.84  41 2.84   4 2.87   1 2.89   8 2.89  11 2.92
  39  0.176  0.333  0.666-  17 2.05  28 2.05  23 2.07  16 2.11  22 2.11  35 2.15  42 2.78   9 2.79
                            42 2.84  11 2.86   2 2.87   5 2.89   3 2.92   6 2.93
  40  0.991  0.494  1.000-  30 2.02  25 2.06  31 2.06  24 2.15  18 2.16  19 2.20   7 2.79  37 2.81
                            37 2.81  12 2.86   9 2.87   4 2.90   1 2.90   6 2.91
  41  0.379  0.689  0.334-  33 2.03  26 2.06  32 2.08  21 2.11  15 2.11  20 2.22  38 2.78  10 2.80
                            38 2.84   8 2.86   5 2.87  11 2.88   4 2.91   1 2.92
  42  0.192  0.846  0.667-  17 2.06  23 2.08  29 2.08  16 2.10  22 2.11  34 2.12  39 2.78  12 2.82
                             8 2.83  39 2.84   3 2.89   2 2.90   6 2.90   5 2.92
 
  LATTYP: Found a triclinic cell.
 ALAT       =     5.5846881703
 B/A-ratio  =     1.0011374702
 C/A-ratio  =     2.5401155463
 COS(alpha) =     0.0003633055
 COS(beta)  =     0.0016473393
 COS(gamma) =     0.4958252503
  
  Lattice vectors:
  
 A1 = (  -2.7809890479,  -4.8430199018,  -0.0003257220)
 A2 = (  -5.5910235608,   0.0137970787,  -0.0001640669)
 A3 = (  -0.0047948511,  -0.0232400739, -14.1857333957)


Analysis of symmetry for initial positions (statically):
=====================================================================
 Subroutine PRICEL returns:
 Original cell was already a primitive cell.
 

 Routine SETGRP: Setting up the symmetry group for a 
 triclinic supercell.


 Subroutine GETGRP returns: Found  1 space group operations
 (whereof  1 operations were pure point group operations)
 out of a pool of  2 trial point group operations.


The static configuration has the point symmetry C_1 .


Analysis of symmetry for dynamics (positions and initial velocities):
=====================================================================
 Subroutine PRICEL returns:
 Original cell was already a primitive cell.
 

 Routine SETGRP: Setting up the symmetry group for a 
 triclinic supercell.


 Subroutine GETGRP returns: Found  1 space group operations
 (whereof  1 operations were pure point group operations)
 out of a pool of  2 trial point group operations.


The dynamic configuration has the point symmetry C_1 .


Analysis of structural, dynamic, and magnetic symmetry:
=====================================================================
 Subroutine PRICEL returns:
 Original cell was already a primitive cell.
 

 Routine SETGRP: Setting up the symmetry group for a 
 triclinic supercell.


 Subroutine GETGRP returns: Found  1 space group operations
 (whereof  1 operations were pure point group operations)
 out of a pool of  2 trial point group operations.


The magnetic configuration has the point symmetry C_1 .


 Subroutine INISYM returns: Found  1 space group operations
 (whereof  1 operations are pure point group operations),
 and found     1 'primitive' translations

 
 
 KPOINTS: KPOINTS created by Atomic Simulation Env

Automatic generation of k-mesh.
Space group operators:
 irot       det(A)        alpha          n_x          n_y          n_z        tau_x        tau_y        tau_z
    1     1.000000     0.000000     1.000000     0.000000     0.000000     0.000000     0.000000     0.000000
 
 Subroutine IBZKPT returns following result:
 ===========================================
 
 Found     40 irreducible k-points:
 
 Following reciprocal coordinates:
            Coordinates               Weight
  0.000000  0.000000  0.000000      1.000000
  0.166667  0.000000 -0.000000      2.000000
  0.333333  0.000000 -0.000000      2.000000
  0.500000 -0.000000 -0.000000      1.000000
 -0.000000  0.166667  0.000000      2.000000
  0.166667  0.166667  0.000000      2.000000
  0.333333  0.166667 -0.000000      2.000000
  0.500000  0.166667  0.000000      2.000000
 -0.333333  0.166667  0.000000      2.000000
 -0.166667  0.166667  0.000000      2.000000
 -0.000000  0.333333  0.000000      2.000000
  0.166667  0.333333  0.000000      2.000000
  0.333333  0.333333  0.000000      2.000000
  0.500000  0.333333  0.000000      2.000000
 -0.333333  0.333333  0.000000      2.000000
 -0.166667  0.333333  0.000000      2.000000
 -0.000000  0.500000  0.000000      1.000000
  0.166667  0.500000  0.000000      2.000000
  0.333333  0.500000 -0.000000      2.000000
  0.500000  0.500000  0.000000      1.000000
 -0.000000  0.000000  0.500000      1.000000
  0.166667  0.000000  0.500000      2.000000
  0.333333  0.000000  0.500000      2.000000
  0.500000  0.000000  0.500000      1.000000
 -0.000000  0.166667  0.500000      2.000000
  0.166667  0.166667  0.500000      2.000000
  0.333333  0.166667  0.500000      2.000000
  0.500000  0.166667  0.500000      2.000000
 -0.333333  0.166667  0.500000      2.000000
 -0.166667  0.166667  0.500000      2.000000
 -0.000000  0.333333  0.500000      2.000000
  0.166667  0.333333  0.500000      2.000000
  0.333333  0.333333  0.500000      2.000000
  0.500000  0.333333  0.500000      2.000000
 -0.333333  0.333333  0.500000      2.000000
 -0.166667  0.333333  0.500000      2.000000
 -0.000000  0.500000  0.500000      1.000000
  0.166667  0.500000  0.500000      2.000000
  0.333333  0.500000  0.500000      2.000000
  0.500000  0.500000  0.500000      1.000000
 
 Following cartesian coordinates:
            Coordinates               Weight
  0.000000  0.000000  0.000000      1.000000
  0.029852  0.017272 -0.000038      2.000000
  0.059705  0.034544 -0.000077      2.000000
  0.089557  0.051815 -0.000115      1.000000
  0.000085  0.034365 -0.000056      2.000000
  0.029937  0.051637 -0.000095      2.000000
  0.059789  0.068909 -0.000133      2.000000
  0.089642  0.086181 -0.000171      2.000000
 -0.059620 -0.000179  0.000020      2.000000
 -0.029768  0.017093 -0.000018      2.000000
  0.000170  0.068730 -0.000113      2.000000
  0.030022  0.086002 -0.000151      2.000000
  0.059874  0.103274 -0.000189      2.000000
  0.089727  0.120546 -0.000228      2.000000
 -0.059535  0.034187 -0.000036      2.000000
 -0.029683  0.051458 -0.000074      2.000000
  0.000254  0.103095 -0.000169      1.000000
  0.030107  0.120367 -0.000207      2.000000
  0.059959  0.137639 -0.000246      2.000000
  0.089811  0.154911 -0.000284      1.000000
 -0.000001 -0.000002  0.035247      1.000000
  0.029851  0.017270  0.035208      2.000000
  0.059704  0.034542  0.035170      2.000000
  0.089556  0.051814  0.035132      1.000000
  0.000084  0.034363  0.035190      2.000000
  0.029936  0.051635  0.035152      2.000000
  0.059788  0.068907  0.035114      2.000000
  0.089641  0.086179  0.035075      2.000000
 -0.059621 -0.000180  0.035267      2.000000
 -0.029769  0.017092  0.035229      2.000000
  0.000169  0.068728  0.035134      2.000000
  0.030021  0.086000  0.035096      2.000000
  0.059873  0.103272  0.035057      2.000000
  0.089726  0.120544  0.035019      2.000000
 -0.059536  0.034185  0.035211      2.000000
 -0.029684  0.051457  0.035172      2.000000
  0.000253  0.103094  0.035078      1.000000
  0.030106  0.120365  0.035039      2.000000
  0.059958  0.137637  0.035001      2.000000
  0.089810  0.154909  0.034963      1.000000
 


--------------------------------------------------------------------------------------------------------




 Dimension of arrays:
   k-points           NKPTS =     40   k-points in BZ     NKDIM =     40   number of bands    NBANDS=    180
   number of dos      NEDOS =    301   number of ions     NIONS =     42
   non local maximal  LDIM  =      6   non local SUM 2l+1 LMDIM =     18
   total plane-waves  NPLWV = 276480
   max r-space proj   IRMAX =   6448   max aug-charges    IRDMAX=   7581
   dimension x,y,z NGX =    48 NGY =   48 NGZ =  120
   dimension x,y,z NGXF=    60 NGYF=   60 NGZF=  160
   support grid    NGXF=    60 NGYF=   60 NGZF=  160
   ions per type =              12  24   6
 NGX,Y,Z   is equivalent  to a cutoff of  14.27, 14.22, 14.06 a.u.
 NGXF,Y,Z  is equivalent  to a cutoff of  17.84, 17.78, 18.75 a.u.


 I would recommend the setting:
   dimension x,y,z NGX =    45 NGY =   45 NGZ =  113
 SYSTEM =  unknown system                          
 POSCAR =  Co O  Li                                

 Startparameter for this run:
   NWRITE =      2    write-flag & timer
   PREC   = high      normal or accurate (medium, high low for compatibility)
   ISTART =      0    job   : 0-new  1-cont  2-samecut
   ICHARG =      2    charge: 1-file 2-atom 10-const
   ISPIN  =      2    spin polarized calculation?
   LNONCOLLINEAR =      F non collinear calculations
   LSORBIT =      F    spin-orbit coupling
   INIWAV =      1    electr: 0-lowe 1-rand  2-diag
   LASPH  =      F    aspherical Exc in radial PAW
   METAGGA=      F    non-selfconsistent MetaGGA calc.

 Electronic Relaxation 1
   ENCUT  =  600.0 eV  44.10 Ry    6.64 a.u.  11.17 11.21 28.33*2*pi/ulx,y,z
   ENINI  =  600.0     initial cutoff
   ENAUG  =  605.4 eV  augmentation charge cutoff
   NELM   =     60;   NELMIN=  2; NELMDL=-12     # of ELM steps 
   EDIFF  = 0.1E-05   stopping-criterion for ELM
   LREAL  =      T    real-space projection
   NLSPLINE    = F    spline interpolate recip. space projectors
   LCOMPAT=      F    compatible to vasp.4.4
   GGA_COMPAT  = T    GGA compatible to vasp.4.4-vasp.4.6
   LMAXPAW     = -100 max onsite density
   LMAXMIX     =    4 max onsite mixed and CHGCAR
   VOSKOWN=      0    Vosko Wilk Nusair interpolation
   ROPT   =   -0.00040  -0.00040  -0.00040
 Ionic relaxation
   EDIFFG = 0.1E-04   stopping-criterion for IOM
   NSW    =      0    number of steps for IOM
   NBLOCK =      1;   KBLOCK =      1    inner block; outer block 
   IBRION =     -1    ionic relax: 0-MD 1-quasi-New 2-CG
   NFREE  =      0    steps in history (QN), initial steepest desc. (CG)
   ISIF   =      2    stress and relaxation
   IWAVPR =     10    prediction:  0-non 1-charg 2-wave 3-comb
   ISYM   =      2    0-nonsym 1-usesym 2-fastsym
   LCORR  =      T    Harris-Foulkes like correction to forces

   POTIM  = 0.5000    time-step for ionic-motion
   TEIN   =    0.0    initial temperature
   TEBEG  =    0.0;   TEEND  =   0.0 temperature during run
   SMASS  =  -3.00    Nose mass-parameter (am)
   estimated Nose-frequenzy (Omega)   =  0.10E-29 period in steps =****** mass=  -0.714E-27a.u.
   SCALEE = 1.0000    scale energy and forces
   NPACO  =    256;   APACO  = 16.0  distance and # of slots for P.C.
   PSTRESS=    0.0 pullay stress

  Mass of Ions in am
   POMASS =  58.93 16.00  7.01
  Ionic Valenz
   ZVAL   =   9.00  6.00  1.00
  Atomic Wigner-Seitz radii
   RWIGS  =  -1.00 -1.00 -1.00
  virtual crystal weights 
   VCA    =   1.00  1.00  1.00
   NELECT =     258.0000    total number of electrons
   NUPDOWN=      -1.0000    fix difference up-down

 DOS related values:
   EMIN   =  10.00;   EMAX   =-10.00  energy-range for DOS
   EFERMI =   0.00
   ISMEAR =     0;   SIGMA  =   0.03  broadening in eV -4-tet -1-fermi 0-gaus

 Electronic relaxation 2 (details)
   IALGO  =     48    algorithm
   LDIAG  =      T    sub-space diagonalisation (order eigenvalues)
   LSUBROT=      F    optimize rotation matrix (better conditioning)
   TURBO    =      0    0=normal 1=particle mesh
   IRESTART =      0    0=no restart 2=restart with 2 vectors
   NREBOOT  =      0    no. of reboots
   NMIN     =      0    reboot dimension
   EREF     =   0.00    reference energy to select bands
   IMIX   =      4    mixing-type and parameters
     AMIX     =   0.40;   BMIX     =  1.00
     AMIX_MAG =   1.60;   BMIX_MAG =  1.00
     AMIN     =   0.10
     WC   =   100.;   INIMIX=   1;  MIXPRE=   1;  MAXMIX= -45

 Intra band minimization:
   WEIMIN = 0.0000     energy-eigenvalue tresh-hold
   EBREAK =  0.14E-08  absolut break condition
   DEPER  =   0.30     relativ break condition  

   TIME   =   0.40     timestep for ELM

  volume/ion in A,a.u.               =       9.16        61.80
  Fermi-wavevector in a.u.,A,eV,Ry     =   1.433034  2.708042 27.940758  2.053588
  Thomas-Fermi vector in A             =   2.552597
 
 Write flags
   LWAVE  =      F    write WAVECAR
   LCHARG =      T    write CHGCAR
   LVTOT  =      F    write LOCPOT, total local potential
   LVHAR  =      F    write LOCPOT, Hartree potential only
   LELF   =      F    write electronic localiz. function (ELF)
   LORBIT =     12    0 simple, 1 ext, 2 COOP (PROOUT)


 Dipole corrections
   LMONO  =      F    monopole corrections only (constant potential shift)
   LDIPOL =      F    correct potential (dipole corrections)
   IDIPOL =      0    1-x, 2-y, 3-z, 4-all directions 
   EPSILON=  1.0000000 bulk dielectric constant

 LDA+U is selected, type is set to LDAUTYPE =  2
   angular momentum for each species LDAUL =     2   -1   -1
   U (eV)           for each species LDAUU =   3.3  0.0  0.0
   J (eV)           for each species LDAUJ =   0.0  0.0  0.0
 Exchange correlation treatment:
   GGA     =    PE    GGA type
   LEXCH   =     8    internal setting for exchange type
   VOSKOWN=      0    Vosko Wilk Nusair interpolation
   LHFCALC =     F    Hartree Fock is set to
   LHFONE  =     F    Hartree Fock one center treatment
   AEXX    =    0.0000 exact exchange contribution

 Linear response parameters
   LEPSILON=     F    determine dielectric tensor
   LRPA    =     F    only Hartree local field effects (RPA)
   LNABLA  =     F    use nabla operator in PAW spheres
   LVEL    =     F    velocity operator in full k-point grid
   LINTERFAST=   F  fast interpolation
   KINTER  =     0    interpolate to denser k-point grid
   CSHIFT  =0.1000    complex shift for real part using Kramers Kronig
   OMEGAMAX=  -1.0    maximum frequency
   DEG_THRESHOLD= 0.2000000E-02 threshold for treating states as degnerate
   RTIME   =    0.100 relaxation time in fs

 Orbital magnetization related:
   ORBITALMAG=     F  switch on orbital magnetization
   LCHIMAG   =     F  perturbation theory with respect to B field
   DQ        =  0.001000  dq finite difference perturbation B field



--------------------------------------------------------------------------------------------------------


 Static calculation
 charge density and potential will be updated during run
 spin polarized calculation
 RMM-DIIS sequential band-by-band
 perform sub-space diagonalisation
    before iterative eigenvector-optimisation
 modified Broyden-mixing scheme, WC =      100.0
 initial mixing is a Kerker type mixing with AMIX =  0.4000 and BMIX =      1.0000
 Hartree-type preconditioning will be used
 using additional bands           51
 real space projection scheme for non local part
 use partial core corrections
 calculate Harris-corrections to forces 
   (improved forces if not selfconsistent)
 use gradient corrections 
 use of overlap-Matrix (Vanderbilt PP)
 Gauss-broadening in eV      SIGMA  =   0.03


--------------------------------------------------------------------------------------------------------


  energy-cutoff  :      600.00
  volume of cell :      384.66
      direct lattice vectors                 reciprocal lattice vectors
     5.591023561 -0.013797079  0.000164067     0.179113865  0.103630872 -0.000230317
    -2.810034513  4.856816981  0.000161655     0.000508830  0.206190575 -0.000337968
     0.004794851  0.023240074 14.185733396    -0.000002077 -0.000003548  0.070493366

  length of vectors
     5.591040587  5.611146511 14.185753243     0.206932809  0.206191480  0.070493366


 
 k-points in units of 2pi/SCALE and weight: KPOINTS created by Atomic Simulation Env
   0.00000000  0.00000000  0.00000000       0.014
   0.02985231  0.01727181 -0.00003839       0.028
   0.05970462  0.03454362 -0.00007677       0.028
   0.08955693  0.05181544 -0.00011516       0.014
   0.00008481  0.03436510 -0.00005633       0.028
   0.02993712  0.05163691 -0.00009471       0.028
   0.05978943  0.06890872 -0.00013310       0.028
   0.08964174  0.08618053 -0.00017149       0.028
  -0.05961982 -0.00017853  0.00002044       0.028
  -0.02976751  0.01709328 -0.00001794       0.028
   0.00016961  0.06873019 -0.00011266       0.028
   0.03002192  0.08600200 -0.00015104       0.028
   0.05987423  0.10327382 -0.00018943       0.028
   0.08972654  0.12054563 -0.00022781       0.028
  -0.05953501  0.03418657 -0.00003588       0.028
  -0.02968270  0.05145838 -0.00007427       0.028
   0.00025442  0.10309529 -0.00016898       0.014
   0.03010673  0.12036710 -0.00020737       0.028
   0.05995904  0.13763891 -0.00024576       0.028
   0.08981135  0.15491072 -0.00028414       0.014
  -0.00000104 -0.00000177  0.03524668       0.014
   0.02985127  0.01727004  0.03520830       0.028
   0.05970358  0.03454185  0.03516991       0.028
   0.08955589  0.05181366  0.03513152       0.014
   0.00008377  0.03436332  0.03519035       0.028
   0.02993608  0.05163513  0.03515197       0.028
   0.05978839  0.06890695  0.03511358       0.028
   0.08964070  0.08617876  0.03507520       0.028
  -0.05962086 -0.00018030  0.03526713       0.028
  -0.02976854  0.01709151  0.03522874       0.028
   0.00016857  0.06872842  0.03513403       0.028
   0.03002088  0.08600023  0.03509564       0.028
   0.05987319  0.10327204  0.03505725       0.028
   0.08972550  0.12054385  0.03501887       0.028
  -0.05953605  0.03418479  0.03521080       0.028
  -0.02968374  0.05145661  0.03517241       0.028
   0.00025338  0.10309351  0.03507770       0.014
   0.03010569  0.12036533  0.03503931       0.028
   0.05995800  0.13763714  0.03500093       0.028
   0.08981031  0.15490895  0.03496254       0.014
 
 k-points in reciprocal lattice and weights: KPOINTS created by Atomic Simulation Env
   0.00000000  0.00000000  0.00000000       0.014
   0.16666667  0.00000000 -0.00000000       0.028
   0.33333333  0.00000000 -0.00000000       0.028
   0.50000000 -0.00000000 -0.00000000       0.014
  -0.00000000  0.16666667  0.00000000       0.028
   0.16666667  0.16666667  0.00000000       0.028
   0.33333333  0.16666667 -0.00000000       0.028
   0.50000000  0.16666667  0.00000000       0.028
  -0.33333333  0.16666667  0.00000000       0.028
  -0.16666667  0.16666667  0.00000000       0.028
  -0.00000000  0.33333333  0.00000000       0.028
   0.16666667  0.33333333  0.00000000       0.028
   0.33333333  0.33333333  0.00000000       0.028
   0.50000000  0.33333333  0.00000000       0.028
  -0.33333333  0.33333333  0.00000000       0.028
  -0.16666667  0.33333333  0.00000000       0.028
  -0.00000000  0.50000000  0.00000000       0.014
   0.16666667  0.50000000  0.00000000       0.028
   0.33333333  0.50000000 -0.00000000       0.028
   0.50000000  0.50000000  0.00000000       0.014
  -0.00000000  0.00000000  0.50000000       0.014
   0.16666667  0.00000000  0.50000000       0.028
   0.33333333  0.00000000  0.50000000       0.028
   0.50000000  0.00000000  0.50000000       0.014
  -0.00000000  0.16666667  0.50000000       0.028
   0.16666667  0.16666667  0.50000000       0.028
   0.33333333  0.16666667  0.50000000       0.028
   0.50000000  0.16666667  0.50000000       0.028
  -0.33333333  0.16666667  0.50000000       0.028
  -0.16666667  0.16666667  0.50000000       0.028
  -0.00000000  0.33333333  0.50000000       0.028
   0.16666667  0.33333333  0.50000000       0.028
   0.33333333  0.33333333  0.50000000       0.028
   0.50000000  0.33333333  0.50000000       0.028
  -0.33333333  0.33333333  0.50000000       0.028
  -0.16666667  0.33333333  0.50000000       0.028
  -0.00000000  0.50000000  0.50000000       0.014
   0.16666667  0.50000000  0.50000000       0.028
   0.33333333  0.50000000  0.50000000       0.028
   0.50000000  0.50000000  0.50000000       0.014
 
 position of ions in fractional coordinates (direct lattice) 
   0.18414209  0.33995159  0.16622043
   0.02440944  0.00936889  0.49706493
   0.35731392  0.17583687  0.83659726
   0.18410932  0.83971678  0.16619996
   0.02417314  0.50902666  0.49673590
   0.35721544  0.67559780  0.83662179
   0.68397150  0.33984598  0.16629195
   0.52589006  0.00970516  0.50311880
   0.85570783  0.17507441  0.82992671
   0.68391905  0.83971306  0.16623880
   0.52603577  0.50997833  0.50343521
   0.85561212  0.67493479  0.82983132
   0.34511689  0.17051086  0.09758839
   0.02275503  0.00885229  0.23501827
   0.20341940  0.35075846  0.42840261
   0.35206760  0.17572970  0.57144818
   0.03783136  0.01628955  0.76156408
   0.18328808  0.33838489  0.90470784
   0.34529543  0.67078145  0.09753585
   0.02276073  0.50886207  0.23487366
   0.19843276  0.84348285  0.42859686
   0.34694709  0.66830614  0.57159643
   0.03817288  0.51667731  0.76166239
   0.18338453  0.83861809  0.90464931
   0.85701598  0.17661334  0.09554351
   0.51131147  0.00319177  0.23688633
   0.68414074  0.34145294  0.43276978
   0.86940295  0.18520956  0.56712671
   0.51183210  0.00317999  0.76568173
   0.69415266  0.34390164  0.89987303
   0.85700659  0.67662732  0.09552420
   0.51092582  0.50280522  0.23677615
   0.68095292  0.83389618  0.43307226
   0.86596683  0.67746955  0.56741040
   0.51150923  0.50312032  0.76570089
   0.69416193  0.84383557  0.89988052
   0.99106117  0.99382200  0.99984729
   0.36080215  0.17430432  0.33313970
   0.17616282  0.33328002  0.66649735
   0.99099068  0.49385470  0.99986212
   0.37862572  0.68870640  0.33403248
   0.19166639  0.84614778  0.66739315
 
 position of ions in cartesian coordinates  (Angst):
   0.07506405  1.65240499  2.35804393
   0.11253020  0.05671804  7.05123612
   1.50765424  0.86852021 11.86783278
  -1.32947665  4.07967303  2.35783423
  -1.29284813  2.48345999  7.04664926
   0.10275831  3.29576949 11.86826143
   2.86991917  1.64499755  2.35914037
   2.91540427  0.05157297  7.13719702
   4.29629686  0.85778568 11.77328771
   1.46498194  4.07275997  2.35846720
   1.51043554  2.48131355  7.14176638
   2.89113635  3.28551515 11.77201532
   1.45088319  0.82564640  1.38444713
   0.10347555  0.04814182  3.33391163
   0.15373341  1.71071918  6.07729525
   1.47735175  0.86190999  8.10649772
   0.16939340  0.09629222 10.80335388
   0.07823267  1.66197013 12.83402904
   0.04610351  3.25536543  1.38378271
  -1.30153802  2.47659440  3.33194107
  -1.25871859  4.10386464  6.08012974
   0.06456673  3.25433770  8.10867958
  -1.23480353  2.52658153 10.80482932
  -1.32690087  4.09150851 12.83327958
   4.29576505  0.84817480  1.35552398
   2.85092131  0.01395250  3.36049072
   2.86762750  1.65899291  6.13932418
   4.34312641  0.90071380  8.04528082
   2.85640077  0.02617733 10.86184135
   2.91896313  1.68160315 12.76552842
   2.89065596  3.27665086  1.35533082
   1.44483357  2.44048634  3.35900848
   1.46602330  4.05075058  6.14369409
   2.94064877  3.29158446  8.04938421
   1.44974613  2.45430090 10.86219400
   1.51418343  4.10969079 12.76571549
   2.75316636  4.83637435 14.18389031
   1.52904951  0.84932835  4.72591829
   0.05159789  1.63173898  9.45483653
   4.15769767  2.40812597 14.18401987
   0.18321820  3.34745993  4.73866919
  -1.30289314  4.12245075  9.46762955
 


--------------------------------------------------------------------------------------------------------


 k-point  1 :   0.0000 0.0000 0.0000  plane waves:   12857
 k-point  2 :   0.1667 0.0000-0.0000  plane waves:   12857
 k-point  3 :   0.3333 0.0000-0.0000  plane waves:   12850
 k-point  4 :   0.5000-0.0000-0.0000  plane waves:   12794
 k-point  5 :  -0.0000 0.1667 0.0000  plane waves:   12840
 k-point  6 :   0.1667 0.1667 0.0000  plane waves:   12831
 k-point  7 :   0.3333 0.1667-0.0000  plane waves:   12853
 k-point  8 :   0.5000 0.1667 0.0000  plane waves:   12852
 k-point  9 :  -0.3333 0.1667 0.0000  plane waves:   12836
 k-point 10 :  -0.1667 0.1667 0.0000  plane waves:   12833
 k-point 11 :  -0.0000 0.3333 0.0000  plane waves:   12827
 k-point 12 :   0.1667 0.3333 0.0000  plane waves:   12837
 k-point 13 :   0.3333 0.3333 0.0000  plane waves:   12839
 k-point 14 :   0.5000 0.3333 0.0000  plane waves:   12832
 k-point 15 :  -0.3333 0.3333 0.0000  plane waves:   12823
 k-point 16 :  -0.1667 0.3333 0.0000  plane waves:   12833
 k-point 17 :  -0.0000 0.5000 0.0000  plane waves:   12828
 k-point 18 :   0.1667 0.5000 0.0000  plane waves:   12845
 k-point 19 :   0.3333 0.5000-0.0000  plane waves:   12839
 k-point 20 :   0.5000 0.5000 0.0000  plane waves:   12842
 k-point 21 :  -0.0000 0.0000 0.5000  plane waves:   12840
 k-point 22 :   0.1667 0.0000 0.5000  plane waves:   12800
 k-point 23 :   0.3333 0.0000 0.5000  plane waves:   12827
 k-point 24 :   0.5000 0.0000 0.5000  plane waves:   12836
 k-point 25 :  -0.0000 0.1667 0.5000  plane waves:   12793
 k-point 26 :   0.1667 0.1667 0.5000  plane waves:   12845
 k-point 27 :   0.3333 0.1667 0.5000  plane waves:   12860
 k-point 28 :   0.5000 0.1667 0.5000  plane waves:   12851
 k-point 29 :  -0.3333 0.1667 0.5000  plane waves:   12833
 k-point 30 :  -0.1667 0.1667 0.5000  plane waves:   12789
 k-point 31 :  -0.0000 0.3333 0.5000  plane waves:   12842
 k-point 32 :   0.1667 0.3333 0.5000  plane waves:   12854
 k-point 33 :   0.3333 0.3333 0.5000  plane waves:   12857
 k-point 34 :   0.5000 0.3333 0.5000  plane waves:   12858
 k-point 35 :  -0.3333 0.3333 0.5000  plane waves:   12841
 k-point 36 :  -0.1667 0.3333 0.5000  plane waves:   12823
 k-point 37 :  -0.0000 0.5000 0.5000  plane waves:   12860
 k-point 38 :   0.1667 0.5000 0.5000  plane waves:   12842
 k-point 39 :   0.3333 0.5000 0.5000  plane waves:   12845
 k-point 40 :   0.5000 0.5000 0.5000  plane waves:   12850

 maximum and minimum number of plane-waves per node :      1631     1575

 maximum number of plane-waves:     12860
 maximum index in each direction: 
   IXMAX=   11   IYMAX=   11   IZMAX=   28
   IXMIN=  -11   IYMIN=  -11   IZMIN=  -28

 NGX is ok and might be reduce to  46
 NGY is ok and might be reduce to  46
 NGZ is ok and might be reduce to 114

 real space projection operators:
  total allocation   :      14268.27 KBytes
  max/ min on nodes  :       1805.77       1742.33


 parallel 3D FFT for wavefunctions:
    minimum data exchange during FFTs selected (reduces bandwidth)
 parallel 3D FFT for charge:
    minimum data exchange during FFTs selected (reduces bandwidth)


 total amount of memory used by VASP on root node   107875. kBytes
========================================================================

   base      :      30000. kBytes
   nonlr-proj:       6809. kBytes
   fftplans  :       1658. kBytes
   grid      :       4480. kBytes
   one-center:        186. kBytes
   wavefun   :      64742. kBytes
 
     INWAV:  cpu time    0.0000: real time    0.0000
 Broyden mixing: mesh for mixing (old mesh)
   NGX = 23   NGY = 23   NGZ = 57
  (NGX  = 60   NGY  = 60   NGZ  =160)
  gives a total of  30153 points

 initial charge density was supplied:
 charge density of overlapping atoms calculated
 number of electron     258.0000000 magnetization      42.0000000
 keeping initial charge density in first step


--------------------------------------------------------------------------------------------------------


 Maximum index for non-local projection operator          802
 Maximum index for augmentation-charges          617 (set IRDMAX)


--------------------------------------------------------------------------------------------------------


 First call to EWALD:  gamma=   0.244
 Maximum number of real-space cells 4x 4x 2
 Maximum number of reciprocal cells 2x 2x 5

 FEWALD executed in parallel
    FEWALD:  cpu time    0.0022: real time    0.0022


----------------------------------------- Iteration    1(   1)  ---------------------------------------


    POTLOK:  cpu time    0.0271: real time    0.0281
    SETDIJ:  cpu time    0.0083: real time    0.0097
    EDDIAG:  cpu time    4.5521: real time    4.5859
  RMM-DIIS:  cpu time    9.6014: real time    9.6661
    ORTHCH:  cpu time    0.8193: real time    0.8246
       DOS:  cpu time    0.0099: real time    0.0102
    --------------------------------------------
      LOOP:  cpu time   15.0215: real time   15.1296

 eigenvalue-minimisations  : 14400
 total energy-change (2. order) : 0.2618577E+04  (-0.1178922E+05)
 number of electron     258.0000000 magnetization      42.0000000
 augmentation part      258.0000000 magnetization      42.0000000

 Free energy of the ion-electron system (eV)
  ---------------------------------------------------
  alpha Z        PSCENC =       762.14991572
  Ewald energy   TEWEN  =    -14101.81325867
  -Hartree energ DENC   =     -6982.83836041
  -exchange      EXHF   =         0.00000000
  -V(xc)+E(xc)   XCENC  =       850.60296537
  PAW double counting   =     17009.71267429   -17545.36899777
  entropy T*S    EENTRO =        -0.01186810
  eigenvalues    EBANDS =      2457.27307155
  atomic energy  EATOM  =     20168.87094289
  Solvation  Ediel_sol  =         0.00000000
  ---------------------------------------------------
  free energy    TOTEN  =      2618.57708487 eV

  energy without entropy =     2618.58895297  energy(sigma->0) =     2618.58301892


--------------------------------------------------------------------------------------------------------




----------------------------------------- Iteration    1(   2)  ---------------------------------------


    EDDIAG:  cpu time    4.1544: real time    4.1815
  RMM-DIIS:  cpu time    8.3558: real time    8.4124
    ORTHCH:  cpu time    0.7987: real time    0.8032
       DOS:  cpu time    0.0087: real time    0.0087
    --------------------------------------------
      LOOP:  cpu time   13.3193: real time   13.4177

 eigenvalue-minimisations  : 14400
 total energy-change (2. order) :-0.1974844E+04  (-0.2292265E+04)
 number of electron     258.0000000 magnetization      42.0000000
 augmentation part      258.0000000 magnetization      42.0000000

 Free energy of the ion-electron system (eV)
  ---------------------------------------------------
  alpha Z        PSCENC =       762.14991572
  Ewald energy   TEWEN  =    -14101.81325867
  -Hartree energ DENC   =     -6982.83836041
  -exchange      EXHF   =         0.00000000
  -V(xc)+E(xc)   XCENC  =       850.60296537
  PAW double counting   =     17009.71267429   -17545.36899777
  entropy T*S    EENTRO =        -0.00427322
  eigenvalues    EBANDS =       482.42175285
  atomic energy  EATOM  =     20168.87094289
  Solvation  Ediel_sol  =         0.00000000
  ---------------------------------------------------
  free energy    TOTEN  =       643.73336106 eV

  energy without entropy =      643.73763428  energy(sigma->0) =      643.73549767


--------------------------------------------------------------------------------------------------------




----------------------------------------- Iteration    1(   3)  ---------------------------------------


    EDDIAG:  cpu time    4.3185: real time    4.3430
  RMM-DIIS:  cpu time    9.4094: real time    9.4682
    ORTHCH:  cpu time    0.8116: real time    0.8163
       DOS:  cpu time    0.0092: real time    0.0092
    --------------------------------------------
      LOOP:  cpu time   14.5504: real time   14.6477

 eigenvalue-minimisations  : 14400
 total energy-change (2. order) :-0.5775799E+03  (-0.5503750E+03)
 number of electron     258.0000000 magnetization      42.0000000
 augmentation part      258.0000000 magnetization      42.0000000

 Free energy of the ion-electron system (eV)
  ---------------------------------------------------
  alpha Z        PSCENC =       762.14991572
  Ewald energy   TEWEN  =    -14101.81325867
  -Hartree energ DENC   =     -6982.83836041
  -exchange      EXHF   =         0.00000000
  -V(xc)+E(xc)   XCENC  =       850.60296537
  PAW double counting   =     17009.71267429   -17545.36899777
  entropy T*S    EENTRO =        -0.02308683
  eigenvalues    EBANDS =       -95.13935530
  atomic energy  EATOM  =     20168.87094289
  Solvation  Ediel_sol  =         0.00000000
  ---------------------------------------------------
  free energy    TOTEN  =        66.15343929 eV

  energy without entropy =       66.17652612  energy(sigma->0) =       66.16498270


--------------------------------------------------------------------------------------------------------




----------------------------------------- Iteration    1(   4)  ---------------------------------------


    EDDIAG:  cpu time    4.1040: real time    4.1270
  RMM-DIIS:  cpu time    9.4655: real time    9.5251
    ORTHCH:  cpu time    0.8045: real time    0.8091
       DOS:  cpu time    0.0099: real time    0.0099
    --------------------------------------------
      LOOP:  cpu time   14.3855: real time   14.4842

 eigenvalue-minimisations  : 14400
 total energy-change (2. order) :-0.2125031E+03  (-0.1752984E+03)
 number of electron     258.0000000 magnetization      42.0000000
 augmentation part      258.0000000 magnetization      42.0000000

 Free energy of the ion-electron system (eV)
  ---------------------------------------------------
  alpha Z        PSCENC =       762.14991572
  Ewald energy   TEWEN  =    -14101.81325867
  -Hartree energ DENC   =     -6982.83836041
  -exchange      EXHF   =         0.00000000
  -V(xc)+E(xc)   XCENC  =       850.60296537
  PAW double counting   =     17009.71267429   -17545.36899777
  entropy T*S    EENTRO =        -0.03111475
  eigenvalues    EBANDS =      -307.63440838
  atomic energy  EATOM  =     20168.87094289
  Solvation  Ediel_sol  =         0.00000000
  ---------------------------------------------------
  free energy    TOTEN  =      -146.34964170 eV

  energy without entropy =     -146.31852695  energy(sigma->0) =     -146.33408433


--------------------------------------------------------------------------------------------------------




----------------------------------------- Iteration    1(   5)  ---------------------------------------


    EDDIAG:  cpu time    4.1044: real time    4.1275
  RMM-DIIS:  cpu time    9.1481: real time    9.2056
    ORTHCH:  cpu time    0.7584: real time    0.7627
       DOS:  cpu time    0.0092: real time    0.0093
    --------------------------------------------
      LOOP:  cpu time   14.0219: real time   14.1164

 eigenvalue-minimisations  : 14400
 total energy-change (2. order) :-0.1037955E+03  (-0.6750856E+02)
 number of electron     258.0000000 magnetization      42.0000000
 augmentation part      258.0000000 magnetization      42.0000000

 Free energy of the ion-electron system (eV)
  ---------------------------------------------------
  alpha Z        PSCENC =       762.14991572
  Ewald energy   TEWEN  =    -14101.81325867
  -Hartree energ DENC   =     -6982.83836041
  -exchange      EXHF   =         0.00000000
  -V(xc)+E(xc)   XCENC  =       850.60296537
  PAW double counting   =     17009.71267429   -17545.36899777
  entropy T*S    EENTRO =        -0.05890260
  eigenvalues    EBANDS =      -411.40213905
  atomic energy  EATOM  =     20168.87094289
  Solvation  Ediel_sol  =         0.00000000
  ---------------------------------------------------
  free energy    TOTEN  =      -250.14516023 eV

  energy without entropy =     -250.08625763  energy(sigma->0) =     -250.11570893


--------------------------------------------------------------------------------------------------------




----------------------------------------- Iteration    1(   6)  ---------------------------------------


    EDDIAG:  cpu time    4.1315: real time    4.1550
  RMM-DIIS:  cpu time    9.4312: real time    9.4917
    ORTHCH:  cpu time    0.8524: real time    0.8574
       DOS:  cpu time    0.0102: real time    0.0102
    --------------------------------------------
      LOOP:  cpu time   14.4271: real time   14.5262

 eigenvalue-minimisations  : 14400
 total energy-change (2. order) :-0.2687382E+02  (-0.1783142E+02)
 number of electron     258.0000000 magnetization      42.0000000
 augmentation part      258.0000000 magnetization      42.0000000

 Free energy of the ion-electron system (eV)
  ---------------------------------------------------
  alpha Z        PSCENC =       762.14991572
  Ewald energy   TEWEN  =    -14101.81325867
  -Hartree energ DENC   =     -6982.83836041
  -exchange      EXHF   =         0.00000000
  -V(xc)+E(xc)   XCENC  =       850.60296537
  PAW double counting   =     17009.71267429   -17545.36899777
  entropy T*S    EENTRO =        -0.04298502
  eigenvalues    EBANDS =      -438.29187520
  atomic energy  EATOM  =     20168.87094289
  Solvation  Ediel_sol  =         0.00000000
  ---------------------------------------------------
  free energy    TOTEN  =      -277.01897879 eV

  energy without entropy =     -276.97599377  energy(sigma->0) =     -276.99748628


--------------------------------------------------------------------------------------------------------




----------------------------------------- Iteration    1(   7)  ---------------------------------------


    EDDIAG:  cpu time    4.0829: real time    4.1059
  RMM-DIIS:  cpu time    9.4060: real time    9.4660
    ORTHCH:  cpu time    0.8585: real time    0.8639
       DOS:  cpu time    0.0096: real time    0.0096
    --------------------------------------------
      LOOP:  cpu time   14.3586: real time   14.4585

 eigenvalue-minimisations  : 14400
 total energy-change (2. order) :-0.9724962E+01  (-0.7319180E+01)
 number of electron     258.0000000 magnetization      42.0000000
 augmentation part      258.0000000 magnetization      42.0000000

 Free energy of the ion-electron system (eV)
  ---------------------------------------------------
  alpha Z        PSCENC =       762.14991572
  Ewald energy   TEWEN  =    -14101.81325867
  -Hartree energ DENC   =     -6982.83836041
  -exchange      EXHF   =         0.00000000
  -V(xc)+E(xc)   XCENC  =       850.60296537
  PAW double counting   =     17009.71267429   -17545.36899777
  entropy T*S    EENTRO =        -0.04139992
  eigenvalues    EBANDS =      -448.01842252
  atomic energy  EATOM  =     20168.87094289
  Solvation  Ediel_sol  =         0.00000000
  ---------------------------------------------------
  free energy    TOTEN  =      -286.74394102 eV

  energy without entropy =     -286.70254110  energy(sigma->0) =     -286.72324106


--------------------------------------------------------------------------------------------------------




----------------------------------------- Iteration    1(   8)  ---------------------------------------


    EDDIAG:  cpu time    4.1344: real time    4.1585
  RMM-DIIS:  cpu time    9.3286: real time    9.3927
    ORTHCH:  cpu time    0.8570: real time    0.8618
       DOS:  cpu time    0.0100: real time    0.0101
    --------------------------------------------
      LOOP:  cpu time   14.3314: real time   14.4345

 eigenvalue-minimisations  : 14400
 total energy-change (2. order) :-0.2191287E+01  (-0.1519748E+01)
 number of electron     258.0000000 magnetization      42.0000000
 augmentation part      258.0000000 magnetization      42.0000000

 Free energy of the ion-electron system (eV)
  ---------------------------------------------------
  alpha Z        PSCENC =       762.14991572
  Ewald energy   TEWEN  =    -14101.81325867
  -Hartree energ DENC   =     -6982.83836041
  -exchange      EXHF   =         0.00000000
  -V(xc)+E(xc)   XCENC  =       850.60296537
  PAW double counting   =     17009.71267429   -17545.36899777
  entropy T*S    EENTRO =        -0.04003709
  eigenvalues    EBANDS =      -450.21107238
  atomic energy  EATOM  =     20168.87094289
  Solvation  Ediel_sol  =         0.00000000
  ---------------------------------------------------
  free energy    TOTEN  =      -288.93522805 eV

  energy without entropy =     -288.89519096  energy(sigma->0) =     -288.91520950


--------------------------------------------------------------------------------------------------------




----------------------------------------- Iteration    1(   9)  ---------------------------------------


    EDDIAG:  cpu time    4.2919: real time    4.3157
  RMM-DIIS:  cpu time   27.5064: real time   27.6873
    ORTHCH:  cpu time    0.8409: real time    0.8460
       DOS:  cpu time    0.0101: real time    0.0101
    --------------------------------------------
      LOOP:  cpu time   32.6508: real time   32.8708

 eigenvalue-minimisations  : 44012
 total energy-change (2. order) :-0.1093973E+01  (-0.9321638E+00)
 number of electron     258.0000000 magnetization      42.0000000
 augmentation part      258.0000000 magnetization      42.0000000

 Free energy of the ion-electron system (eV)
  ---------------------------------------------------
  alpha Z        PSCENC =       762.14991572
  Ewald energy   TEWEN  =    -14101.81325867
  -Hartree energ DENC   =     -6982.83836041
  -exchange      EXHF   =         0.00000000
  -V(xc)+E(xc)   XCENC  =       850.60296537
  PAW double counting   =     17009.71267429   -17545.36899777
  entropy T*S    EENTRO =        -0.03870741
  eigenvalues    EBANDS =      -451.30637508
  atomic energy  EATOM  =     20168.87094289
  Solvation  Ediel_sol  =         0.00000000
  ---------------------------------------------------
  free energy    TOTEN  =      -290.02920107 eV

  energy without entropy =     -289.99049366  energy(sigma->0) =     -290.00984736


--------------------------------------------------------------------------------------------------------




----------------------------------------- Iteration    1(  10)  ---------------------------------------


    EDDIAG:  cpu time    4.2768: real time    4.3066
  RMM-DIIS:  cpu time   28.5450: real time   28.7394
    ORTHCH:  cpu time    0.8197: real time    0.8247
       DOS:  cpu time    0.0093: real time    0.0094
    --------------------------------------------
      LOOP:  cpu time   33.6528: real time   33.8921

 eigenvalue-minimisations  : 46056
 total energy-change (2. order) : 0.1507217E-01  (-0.3124909E-01)
 number of electron     258.0000000 magnetization      42.0000000
 augmentation part      258.0000000 magnetization      42.0000000

 Free energy of the ion-electron system (eV)
  ---------------------------------------------------
  alpha Z        PSCENC =       762.14991572
  Ewald energy   TEWEN  =    -14101.81325867
  -Hartree energ DENC   =     -6982.83836041
  -exchange      EXHF   =         0.00000000
  -V(xc)+E(xc)   XCENC  =       850.60296537
  PAW double counting   =     17009.71267429   -17545.36899777
  entropy T*S    EENTRO =        -0.03879362
  eigenvalues    EBANDS =      -451.29121669
  atomic energy  EATOM  =     20168.87094289
  Solvation  Ediel_sol  =         0.00000000
  ---------------------------------------------------
  free energy    TOTEN  =      -290.01412889 eV

  energy without entropy =     -289.97533527  energy(sigma->0) =     -289.99473208


--------------------------------------------------------------------------------------------------------




----------------------------------------- Iteration    1(  11)  ---------------------------------------


    EDDIAG:  cpu time    4.0984: real time    4.1221
  RMM-DIIS:  cpu time   26.2721: real time   26.4411
    ORTHCH:  cpu time    0.7637: real time    0.7680
       DOS:  cpu time    0.0091: real time    0.0092
    --------------------------------------------
      LOOP:  cpu time   31.1450: real time   31.3541

 eigenvalue-minimisations  : 48305
 total energy-change (2. order) :-0.1841037E-02  (-0.3159792E-02)
 number of electron     258.0000000 magnetization      42.0000000
 augmentation part      258.0000000 magnetization      42.0000000

 Free energy of the ion-electron system (eV)
  ---------------------------------------------------
  alpha Z        PSCENC =       762.14991572
  Ewald energy   TEWEN  =    -14101.81325867
  -Hartree energ DENC   =     -6982.83836041
  -exchange      EXHF   =         0.00000000
  -V(xc)+E(xc)   XCENC  =       850.60296537
  PAW double counting   =     17009.71267429   -17545.36899777
  entropy T*S    EENTRO =        -0.03880307
  eigenvalues    EBANDS =      -451.29304829
  atomic energy  EATOM  =     20168.87094289
  Solvation  Ediel_sol  =         0.00000000
  ---------------------------------------------------
  free energy    TOTEN  =      -290.01596993 eV

  energy without entropy =     -289.97716686  energy(sigma->0) =     -289.99656840


--------------------------------------------------------------------------------------------------------




----------------------------------------- Iteration    1(  12)  ---------------------------------------


    EDDIAG:  cpu time    4.0830: real time    4.1058
  RMM-DIIS:  cpu time   26.0256: real time   26.1982
    ORTHCH:  cpu time    0.7825: real time    0.7872
       DOS:  cpu time    0.0094: real time    0.0095
    CHARGE:  cpu time    0.6910: real time    0.6939
    MIXING:  cpu time    0.0007: real time    0.0019
    --------------------------------------------
      LOOP:  cpu time   31.5940: real time   31.8096

 eigenvalue-minimisations  : 47182
 total energy-change (2. order) :-0.1152607E-03  (-0.1297443E-03)
 number of electron     258.0000111 magnetization      34.6832839
 augmentation part       67.6545324 magnetization      30.8058932

 Broyden mixing:
  rms(total) = 0.96723E+01    rms(broyden)= 0.96721E+01
  rms(prec ) = 0.10470E+02
  weight for this iteration     100.00

 Free energy of the ion-electron system (eV)
  ---------------------------------------------------
  alpha Z        PSCENC =       762.14991572
  Ewald energy   TEWEN  =    -14101.81325867
  -Hartree energ DENC   =     -6982.83836041
  -exchange      EXHF   =         0.00000000
  -V(xc)+E(xc)   XCENC  =       850.60296537
  PAW double counting   =     17009.71267429   -17545.36899777
  entropy T*S    EENTRO =        -0.03880282
  eigenvalues    EBANDS =      -451.29316379
  atomic energy  EATOM  =     20168.87094289
  Solvation  Ediel_sol  =         0.00000000
  ---------------------------------------------------
  free energy    TOTEN  =      -290.01608519 eV

  energy without entropy =     -289.97728237  energy(sigma->0) =     -289.99668378


--------------------------------------------------------------------------------------------------------




----------------------------------------- Iteration    1(  13)  ---------------------------------------


    POTLOK:  cpu time    0.0220: real time    0.0221
    SETDIJ:  cpu time    0.0054: real time    0.0054
    EDDIAG:  cpu time    3.8135: real time    3.8347
  RMM-DIIS:  cpu time   18.9931: real time   19.1152
    ORTHCH:  cpu time    0.7926: real time    0.7977
       DOS:  cpu time    0.0093: real time    0.0093
    CHARGE:  cpu time    0.6833: real time    0.6867
    MIXING:  cpu time    0.0007: real time    0.0007
    --------------------------------------------
      LOOP:  cpu time   24.3215: real time   24.4838

 eigenvalue-minimisations  : 35305
 total energy-change (2. order) :-0.4209976E+02  (-0.8642357E+02)
 number of electron     258.0000196 magnetization      32.1629666
 augmentation part       95.2360841 magnetization      28.9535671

 Broyden mixing:
  rms(total) = 0.14671E+02    rms(broyden)= 0.14671E+02
  rms(prec ) = 0.15787E+02
  weight for this iteration     100.00

 eigenvalues of (default mixing * dielectric matrix)
  average eigenvalue GAMMA=   0.3251
  0.3251

 Free energy of the ion-electron system (eV)
  ---------------------------------------------------
  alpha Z        PSCENC =       762.14991572
  Ewald energy   TEWEN  =    -14101.81325867
  -Hartree energ DENC   =     -6839.10233909
  -exchange      EXHF   =         0.00000000
  -V(xc)+E(xc)   XCENC  =       872.57197424
  PAW double counting   =     19402.11539082   -19817.62653466
  entropy T*S    EENTRO =        -0.00900134
  eigenvalues    EBANDS =      -779.27293426
  atomic energy  EATOM  =     20168.87094289
  Solvation  Ediel_sol  =         0.00000000
  ---------------------------------------------------
  free energy    TOTEN  =      -332.11584434 eV

  energy without entropy =     -332.10684301  energy(sigma->0) =     -332.11134368


--------------------------------------------------------------------------------------------------------




----------------------------------------- Iteration    1(  14)  ---------------------------------------


    POTLOK:  cpu time    0.0219: real time    0.0220
    SETDIJ:  cpu time    0.0056: real time    0.0057
    EDDIAG:  cpu time    3.8698: real time    3.8946
  RMM-DIIS:  cpu time   16.7326: real time   16.8415
    ORTHCH:  cpu time    0.7683: real time    0.7731
       DOS:  cpu time    0.0093: real time    0.0094
    CHARGE:  cpu time    0.6670: real time    0.6699
    MIXING:  cpu time    0.0006: real time    0.0006
    --------------------------------------------
      LOOP:  cpu time   22.0768: real time   22.2278

 eigenvalue-minimisations  : 31714
 total energy-change (2. order) : 0.1231507E+03  (-0.1480937E+02)
 number of electron     258.0000132 magnetization      24.9446022
 augmentation part       76.2709415 magnetization      22.6500913

 Broyden mixing:
  rms(total) = 0.32555E+01    rms(broyden)= 0.32552E+01
  rms(prec ) = 0.33802E+01
  weight for this iteration     100.00

 eigenvalues of (default mixing * dielectric matrix)
  average eigenvalue GAMMA=   0.6317
  0.9076  0.3558

 Free energy of the ion-electron system (eV)
  ---------------------------------------------------
  alpha Z        PSCENC =       762.14991572
  Ewald energy   TEWEN  =    -14101.81325867
  -Hartree energ DENC   =     -6970.46496501
  -exchange      EXHF   =         0.00000000
  -V(xc)+E(xc)   XCENC  =       869.14492160
  PAW double counting   =     20432.49758378   -20945.78566143
  entropy T*S    EENTRO =        -0.01258131
  eigenvalues    EBANDS =      -423.55202132
  atomic energy  EATOM  =     20168.87094289
  Solvation  Ediel_sol  =         0.00000000
  ---------------------------------------------------
  free energy    TOTEN  =      -208.96512376 eV

  energy without entropy =     -208.95254245  energy(sigma->0) =     -208.95883310


--------------------------------------------------------------------------------------------------------




----------------------------------------- Iteration    1(  15)  ---------------------------------------


    POTLOK:  cpu time    0.0213: real time    0.0215
    SETDIJ:  cpu time    0.0054: real time    0.0054
    EDDIAG:  cpu time    3.8477: real time    3.8694
  RMM-DIIS:  cpu time   17.7644: real time   17.8771
    ORTHCH:  cpu time    0.7909: real time    0.7956
       DOS:  cpu time    0.0094: real time    0.0094
    CHARGE:  cpu time    0.6730: real time    0.6761
    MIXING:  cpu time    0.0006: real time    0.0006
    --------------------------------------------
      LOOP:  cpu time   23.1142: real time   23.2672

 eigenvalue-minimisations  : 32582
 total energy-change (2. order) :-0.2323369E+02  (-0.2807873E+01)
 number of electron     258.0000144 magnetization      23.4660443
 augmentation part       75.9967988 magnetization      19.4532215

 Broyden mixing:
  rms(total) = 0.89754E+01    rms(broyden)= 0.89753E+01
  rms(prec ) = 0.10635E+02
  weight for this iteration     100.00

 eigenvalues of (default mixing * dielectric matrix)
  average eigenvalue GAMMA=   0.5360
  1.0454  0.3675  0.1952

 Free energy of the ion-electron system (eV)
  ---------------------------------------------------
  alpha Z        PSCENC =       762.14991572
  Ewald energy   TEWEN  =    -14101.81325867
  -Hartree energ DENC   =     -6954.02064000
  -exchange      EXHF   =         0.00000000
  -V(xc)+E(xc)   XCENC  =       867.93366082
  PAW double counting   =     21880.66249702   -22399.30438849
  entropy T*S    EENTRO =        -0.01369269
  eigenvalues    EBANDS =      -456.66385048
  atomic energy  EATOM  =     20168.87094289
  Solvation  Ediel_sol  =         0.00000000
  ---------------------------------------------------
  free energy    TOTEN  =      -232.19881388 eV

  energy without entropy =     -232.18512119  energy(sigma->0) =     -232.19196754


--------------------------------------------------------------------------------------------------------




----------------------------------------- Iteration    1(  16)  ---------------------------------------


    POTLOK:  cpu time    0.0218: real time    0.0220
    SETDIJ:  cpu time    0.0054: real time    0.0055
    EDDIAG:  cpu time    3.8854: real time    3.9079
  RMM-DIIS:  cpu time   17.6687: real time   17.7873
    ORTHCH:  cpu time    0.7862: real time    0.7906
       DOS:  cpu time    0.0087: real time    0.0087
    CHARGE:  cpu time    0.6635: real time    0.6663
    MIXING:  cpu time    0.0009: real time    0.0009
    --------------------------------------------
      LOOP:  cpu time   23.0424: real time   23.2011

 eigenvalue-minimisations  : 32639
 total energy-change (2. order) : 0.1596829E+02  (-0.1690203E+01)
 number of electron     258.0000121 magnetization      21.3365583
 augmentation part       77.4128850 magnetization      18.5907962

 Broyden mixing:
  rms(total) = 0.30491E+01    rms(broyden)= 0.30489E+01
  rms(prec ) = 0.36761E+01
  weight for this iteration     100.00

 eigenvalues of (default mixing * dielectric matrix)
  average eigenvalue GAMMA=   0.5232
  1.0983  0.5572  0.2993  0.1381

 Free energy of the ion-electron system (eV)
  ---------------------------------------------------
  alpha Z        PSCENC =       762.14991572
  Ewald energy   TEWEN  =    -14101.81325867
  -Hartree energ DENC   =     -6952.80835747
  -exchange      EXHF   =         0.00000000
  -V(xc)+E(xc)   XCENC  =       866.71754837
  PAW double counting   =     22204.49001298   -22726.65428872
  entropy T*S    EENTRO =        -0.00519463
  eigenvalues    EBANDS =      -437.17784836
  atomic energy  EATOM  =     20168.87094289
  Solvation  Ediel_sol  =         0.00000000
  ---------------------------------------------------
  free energy    TOTEN  =      -216.23052789 eV

  energy without entropy =     -216.22533327  energy(sigma->0) =     -216.22793058


--------------------------------------------------------------------------------------------------------




----------------------------------------- Iteration    1(  17)  ---------------------------------------


    POTLOK:  cpu time    0.0218: real time    0.0219
    SETDIJ:  cpu time    0.0055: real time    0.0055
    EDDIAG:  cpu time    4.1889: real time    4.2206
  RMM-DIIS:  cpu time   20.0976: real time   20.2353
    ORTHCH:  cpu time    0.8578: real time    0.8629
       DOS:  cpu time    0.0093: real time    0.0093
    CHARGE:  cpu time    0.7216: real time    0.7249
    MIXING:  cpu time    0.0008: real time    0.0008
    --------------------------------------------
      LOOP:  cpu time   25.9051: real time   26.0930

 eigenvalue-minimisations  : 32006
 total energy-change (2. order) :-0.3438029E+01  (-0.1275084E+01)
 number of electron     258.0000136 magnetization      17.9081292
 augmentation part       76.8880255 magnetization      15.1446784

 Broyden mixing:
  rms(total) = 0.28178E+01    rms(broyden)= 0.28177E+01
  rms(prec ) = 0.32464E+01
  weight for this iteration     100.00

 eigenvalues of (default mixing * dielectric matrix)
  average eigenvalue GAMMA=   0.5274
  1.2431  0.7346  0.2961  0.2231  0.1403

 Free energy of the ion-electron system (eV)
  ---------------------------------------------------
  alpha Z        PSCENC =       762.14991572
  Ewald energy   TEWEN  =    -14101.81325867
  -Hartree energ DENC   =     -6960.92711068
  -exchange      EXHF   =         0.00000000
  -V(xc)+E(xc)   XCENC  =       864.74784761
  PAW double counting   =     22538.70642302   -23065.60360694
  entropy T*S    EENTRO =        -0.00460491
  eigenvalues    EBANDS =      -425.79510475
  atomic energy  EATOM  =     20168.87094289
  Solvation  Ediel_sol  =         0.00000000
  ---------------------------------------------------
  free energy    TOTEN  =      -219.66855670 eV

  energy without entropy =     -219.66395179  energy(sigma->0) =     -219.66625424


--------------------------------------------------------------------------------------------------------




----------------------------------------- Iteration    1(  18)  ---------------------------------------


    POTLOK:  cpu time    0.0220: real time    0.0221
    SETDIJ:  cpu time    0.0060: real time    0.0061
    EDDIAG:  cpu time    4.2331: real time    4.2569
  RMM-DIIS:  cpu time   19.5266: real time   19.6497
    ORTHCH:  cpu time    0.8647: real time    0.8698
       DOS:  cpu time    0.0080: real time    0.0081
    CHARGE:  cpu time    0.7521: real time    0.7553
    MIXING:  cpu time    0.0012: real time    0.0012
    --------------------------------------------
      LOOP:  cpu time   25.4155: real time   25.5809

 eigenvalue-minimisations  : 31243
 total energy-change (2. order) :-0.4481648E+01  (-0.7781072E+00)
 number of electron     258.0000125 magnetization      16.2825832
 augmentation part       76.5729355 magnetization      13.7450393

 Broyden mixing:
  rms(total) = 0.18716E+01    rms(broyden)= 0.18716E+01
  rms(prec ) = 0.21622E+01
  weight for this iteration     100.00

 eigenvalues of (default mixing * dielectric matrix)
  average eigenvalue GAMMA=   0.5203
  1.3166  0.8058  0.3383  0.3383  0.1596  0.1629

 Free energy of the ion-electron system (eV)
  ---------------------------------------------------
  alpha Z        PSCENC =       762.14991572
  Ewald energy   TEWEN  =    -14101.81325867
  -Hartree energ DENC   =     -6969.63579297
  -exchange      EXHF   =         0.00000000
  -V(xc)+E(xc)   XCENC  =       861.45150430
  PAW double counting   =     23056.08489691   -23587.56819734
  entropy T*S    EENTRO =        -0.00300468
  eigenvalues    EBANDS =      -413.68721098
  atomic energy  EATOM  =     20168.87094289
  Solvation  Ediel_sol  =         0.00000000
  ---------------------------------------------------
  free energy    TOTEN  =      -224.15020481 eV

  energy without entropy =     -224.14720013  energy(sigma->0) =     -224.14870247


--------------------------------------------------------------------------------------------------------




----------------------------------------- Iteration    1(  19)  ---------------------------------------


    POTLOK:  cpu time    0.0235: real time    0.0237
    SETDIJ:  cpu time    0.0063: real time    0.0063
    EDDIAG:  cpu time    4.3722: real time    4.3988
  RMM-DIIS:  cpu time   19.9194: real time   20.0484
    ORTHCH:  cpu time    0.8218: real time    0.8265
       DOS:  cpu time    0.0090: real time    0.0090
    CHARGE:  cpu time    0.7038: real time    0.7072
    MIXING:  cpu time    0.0008: real time    0.0008
    --------------------------------------------
      LOOP:  cpu time   25.8585: real time   26.0341

 eigenvalue-minimisations  : 31773
 total energy-change (2. order) :-0.3258195E+01  (-0.4053048E+00)
 number of electron     258.0000133 magnetization      13.0717355
 augmentation part       76.2760785 magnetization      10.6931437

 Broyden mixing:
  rms(total) = 0.15281E+01    rms(broyden)= 0.15280E+01
  rms(prec ) = 0.17522E+01
  weight for this iteration     100.00

 eigenvalues of (default mixing * dielectric matrix)
  average eigenvalue GAMMA=   0.5784
  1.5647  1.0337  0.5870  0.3387  0.2283  0.1481  0.1481

 Free energy of the ion-electron system (eV)
  ---------------------------------------------------
  alpha Z        PSCENC =       762.14991572
  Ewald energy   TEWEN  =    -14101.81325867
  -Hartree energ DENC   =     -6972.60471904
  -exchange      EXHF   =         0.00000000
  -V(xc)+E(xc)   XCENC  =       859.76020489
  PAW double counting   =     23258.61543212   -23792.33372691
  entropy T*S    EENTRO =        -0.00510584
  eigenvalues    EBANDS =      -410.04808479
  atomic energy  EATOM  =     20168.87094289
  Solvation  Ediel_sol  =         0.00000000
  ---------------------------------------------------
  free energy    TOTEN  =      -227.40839963 eV

  energy without entropy =     -227.40329379  energy(sigma->0) =     -227.40584671


--------------------------------------------------------------------------------------------------------




----------------------------------------- Iteration    1(  20)  ---------------------------------------


    POTLOK:  cpu time    0.0229: real time    0.0230
    SETDIJ:  cpu time    0.0060: real time    0.0060
    EDDIAG:  cpu time    4.0375: real time    4.0607
  RMM-DIIS:  cpu time   18.7925: real time   18.9101
    ORTHCH:  cpu time    0.8599: real time    0.8648
       DOS:  cpu time    0.0095: real time    0.0096
    CHARGE:  cpu time    0.7422: real time    0.7454
    MIXING:  cpu time    0.0012: real time    0.0012
    --------------------------------------------
      LOOP:  cpu time   24.4736: real time   24.6327

 eigenvalue-minimisations  : 30493
 total energy-change (2. order) :-0.5845545E+01  (-0.5342738E+00)
 number of electron     258.0000123 magnetization      12.0593962
 augmentation part       75.8671986 magnetization       9.9888965

 Broyden mixing:
  rms(total) = 0.98913E+00    rms(broyden)= 0.98909E+00
  rms(prec ) = 0.11360E+01
[...]
 11        0.003   0.005  -0.013  -0.004
 12        0.009   0.010   1.114   1.133
 13        0.001  -0.026   0.000  -0.025
 14        0.001  -0.028   0.000  -0.027
 15        0.001  -0.006   0.000  -0.006
 16        0.001  -0.036   0.000  -0.036
 17        0.001  -0.027   0.000  -0.026
 18        0.000  -0.027   0.000  -0.027
 19        0.001  -0.028   0.000  -0.027
 20        0.001  -0.027   0.000  -0.026
 21        0.001  -0.035   0.000  -0.035
 22        0.001  -0.006   0.000  -0.006
 23        0.001  -0.028   0.000  -0.028
 24        0.000  -0.026   0.000  -0.026
 25        0.000  -0.017   0.000  -0.017
 26        0.000  -0.018   0.000  -0.018
 27        0.000  -0.035   0.000  -0.035
 28        0.001  -0.048   0.000  -0.047
 29        0.001  -0.003   0.000  -0.003
 30        0.000  -0.064   0.000  -0.063
 31        0.000  -0.018   0.000  -0.018
 32        0.000  -0.018   0.000  -0.018
 33        0.001  -0.047   0.000  -0.047
 34        0.000  -0.036   0.000  -0.035
 35        0.001  -0.004   0.000  -0.003
 36        0.001  -0.063   0.000  -0.062
 37        0.001   0.001   0.000   0.002
 38        0.001   0.001   0.000   0.002
 39        0.000  -0.001   0.000  -0.001
 40        0.001   0.001   0.000   0.002
 41        0.001  -0.000   0.000   0.001
 42        0.001  -0.000   0.000   0.000
------------------------------------------------
tot        0.091  -0.577   6.559   6.073
 
    CHARGE:  cpu time    0.7457: real time    0.7491
    FORLOC:  cpu time    0.0019: real time    0.0019
    FORNL :  cpu time    5.4971: real time    5.5271
    STRESS:  cpu time   15.7422: real time   15.8295
    FORCOR:  cpu time    0.0214: real time    0.0215
    FORHAR:  cpu time    0.0037: real time    0.0037
    MIXING:  cpu time    0.0047: real time    0.0047
    OFIELD:  cpu time    0.0000: real time    0.0000

 ---------------------------------------------------------------------------------------------

         DFTD3 V3.0 Rev 1        
 IVDW         = 12
 DF pbe       
 parameters
 VDW_S6       =    1.0000
 VDW_S8       =    0.7875
 VDW_A1       =    0.4289
 VDW_A2       =    4.4407
 k1-k3        =   16.0000    1.3333   -4.0000
 VDW_RADIUS   =   50.2022 A
 VDW_CNRADIUS =   21.1671 A
 Edisp (eV)   -7.79015

 E6    (eV) :    -4.9745
 E8    (eV) :    -2.8157
 % E8        : 36.14
    FORVDW:  cpu time    0.4339: real time    0.4406

  FORCE on cell =-STRESS in cart. coord.  units (eV):
  Direction    XX          YY          ZZ          XY          YZ          ZX
  --------------------------------------------------------------------------------------
  Alpha Z   762.14992   762.14992   762.14992
  Ewald   -1716.15272 -1690.88902-10694.84323    -7.83706     4.95210    30.77256
  Hartree  4530.61870  4534.66018 -2132.53253     0.27903     3.02388    12.31003
  E(xc)   -1285.40074 -1285.33812 -1286.69287    -0.02967    -0.02697     0.01604
  Local   -7785.15369 -7808.05423  7820.13371     5.02771    -9.42225   -41.11667
  n-local  -589.43530  -589.11980  -598.49781     0.98394    -0.14341     1.12456
  augment  2022.14366  2020.26213  2000.39898    -0.06653     0.66518    -1.26137
  Kinetic  4069.53411  4064.87198  4138.44593     1.82200     0.84433    -1.81370
  Fock        0.00000     0.00000     0.00000     0.00000     0.00000     0.00000
  vdW        -8.14766    -8.10171    -8.14810    -0.04095     0.00490     0.00724
  -------------------------------------------------------------------------------------
  Total       0.15627     0.44133     0.41400     0.13846    -0.10225     0.03868
  in kB       0.65088     1.83821     1.72441     0.57673    -0.42589     0.16112
  external pressure =        1.40 kB  Pullay stress =        0.00 kB


 VOLUME and BASIS-vectors are now :
 -----------------------------------------------------------------------------
  energy-cutoff  :      600.00
  volume of cell :      384.66
      direct lattice vectors                 reciprocal lattice vectors
     5.591023561 -0.013797079  0.000164067     0.179113865  0.103630872 -0.000230317
    -2.810034513  4.856816981  0.000161655     0.000508830  0.206190575 -0.000337968
     0.004794851  0.023240074 14.185733396    -0.000002077 -0.000003548  0.070493366

  length of vectors
     5.591040587  5.611146511 14.185753243     0.206932809  0.206191480  0.070493366


 FORCES acting on ions
    electron-ion (+dipol)            ewald-force                    non-local-force                 convergence-correction
 -----------------------------------------------------------------------------------------------
   0.676E+00 0.969E+00 -.352E+01   -.670E+00 -.956E+00 0.352E+01   -.825E-02 -.177E-02 -.918E-02   -.560E-03 -.119E-03 0.232E-01
   0.954E+01 0.472E+01 0.409E+02   -.101E+02 -.495E+01 -.412E+02   0.573E+00 0.152E+00 0.227E+00   -.147E-03 0.178E-04 -.301E-02
   -.836E+01 -.429E+01 -.413E+02   0.884E+01 0.458E+01 0.413E+02   -.492E+00 -.298E+00 -.200E+00   0.282E-03 0.206E-03 -.188E-01
   0.640E+00 -.161E+00 -.382E+01   -.633E+00 0.150E+00 0.376E+01   -.612E-02 0.679E-02 0.356E-01   -.446E-03 -.467E-03 0.232E-01
   0.855E+01 0.535E+01 0.460E+02   -.899E+01 -.564E+01 -.462E+02   0.415E+00 0.365E+00 0.236E+00   -.308E-04 -.135E-03 -.297E-02
   -.842E+01 -.536E+01 -.419E+02   0.891E+01 0.563E+01 0.419E+02   -.493E+00 -.275E+00 -.165E+00   0.780E-03 0.425E-03 -.185E-01
   -.537E+00 0.966E-01 -.372E+01   0.504E+00 -.107E+00 0.382E+01   0.203E-01 0.682E-02 -.944E-01   0.542E-03 0.382E-03 0.229E-01
   -.975E+01 -.459E+01 -.329E+02   0.103E+02 0.482E+01 0.332E+02   -.565E+00 -.160E+00 -.250E+00   0.213E-03 0.150E-03 -.507E-02
   0.787E+01 0.499E+01 0.392E+02   -.844E+01 -.532E+01 -.396E+02   0.557E+00 0.318E+00 0.244E+00   -.187E-03 -.613E-03 -.195E-01
   -.729E+00 -.749E+00 -.372E+01   0.715E+00 0.727E+00 0.372E+01   0.564E-03 0.921E-02 -.178E-01   0.442E-03 0.183E-03 0.228E-01
   -.858E+01 -.563E+01 -.373E+02   0.904E+01 0.592E+01 0.375E+02   -.416E+00 -.372E+00 -.272E+00   0.426E-04 -.161E-04 -.513E-02
   0.800E+01 0.431E+01 0.397E+02   -.855E+01 -.463E+01 -.401E+02   0.530E+00 0.294E+00 0.292E+00   -.633E-03 0.163E-03 -.196E-01
   -.174E+02 -.104E+02 0.330E+03   0.205E+02 0.122E+02 -.352E+03   -.308E+01 -.182E+01 0.225E+02   0.224E-02 0.863E-03 0.901E-02
   0.179E+02 0.103E+02 -.335E+03   -.212E+02 -.122E+02 0.357E+03   0.335E+01 0.185E+01 -.220E+02   -.179E-02 -.157E-02 0.215E-01
   0.994E+01 0.133E+02 0.328E+03   -.116E+02 -.133E+02 -.346E+03   0.166E+01 -.571E+00 0.180E+02   -.154E-03 -.259E-02 0.160E-01
   -.979E+01 0.403E+01 -.320E+03   0.117E+02 -.211E+01 0.338E+03   -.198E+01 -.256E+01 -.185E+02   -.232E-02 -.129E-02 -.216E-01
   0.184E+02 0.107E+02 0.322E+03   -.192E+02 -.113E+02 -.340E+03   0.209E+00 0.283E+00 0.179E+02   -.987E-05 -.247E-02 -.248E-01
   -.162E+01 -.741E+00 -.327E+03   0.425E+01 0.226E+01 0.346E+03   -.329E+01 -.190E+01 -.185E+02   -.639E-03 -.139E-02 0.134E-02
   -.175E+02 -.103E+02 0.330E+03   0.206E+02 0.121E+02 -.352E+03   -.307E+01 -.181E+01 0.226E+02   0.170E-02 0.137E-02 0.906E-02
   0.175E+02 0.106E+02 -.335E+03   -.206E+02 -.125E+02 0.357E+03   0.308E+01 0.194E+01 -.226E+02   -.239E-02 -.803E-03 0.212E-01
   0.922E+01 -.409E+01 0.325E+03   -.111E+02 0.213E+01 -.344E+03   0.195E+01 0.257E+01 0.183E+02   -.341E-02 0.140E-02 0.158E-01
   -.104E+02 -.138E+02 -.323E+03   0.121E+02 0.139E+02 0.341E+03   -.164E+01 0.545E+00 -.181E+02   0.268E-03 -.610E-03 -.202E-01
   0.184E+02 0.102E+02 0.322E+03   -.193E+02 -.105E+02 -.340E+03   0.168E+00 -.130E+00 0.183E+02   -.296E-02 0.578E-03 -.251E-01
   -.157E+01 -.745E+00 -.327E+03   0.418E+01 0.226E+01 0.346E+03   -.325E+01 -.191E+01 -.184E+02   -.346E-02 -.962E-03 0.378E-03
   0.201E+02 0.115E+02 0.316E+03   -.236E+02 -.134E+02 -.334E+03   0.343E+01 0.195E+01 0.176E+02   -.198E-02 -.983E-03 0.978E-02
   -.203E+02 -.118E+02 -.321E+03   0.238E+02 0.140E+02 0.339E+03   -.350E+01 -.221E+01 -.178E+02   0.140E-02 0.900E-03 0.201E-01
   -.782E+01 0.365E+01 0.333E+03   0.926E+01 -.183E+01 -.355E+03   -.150E+01 -.250E+01 0.215E+02   -.291E-04 0.751E-03 0.136E-01
   0.909E+01 0.158E+02 -.323E+03   -.108E+02 -.160E+02 0.345E+03   0.173E+01 -.513E+00 -.216E+02   0.310E-02 -.179E-02 -.210E-01
   -.153E+02 -.889E+01 0.329E+03   0.160E+02 0.921E+01 -.351E+03   -.194E+00 0.147E-01 0.214E+02   0.422E-03 0.128E-02 -.257E-01
   -.713E+00 -.280E+00 -.327E+03   -.177E+01 -.119E+01 0.348E+03   0.302E+01 0.180E+01 -.213E+02   -.669E-05 0.273E-02 -.509E-03
   0.201E+02 0.114E+02 0.317E+03   -.236E+02 -.134E+02 -.334E+03   0.341E+01 0.194E+01 0.177E+02   -.138E-02 -.964E-03 0.985E-02
   -.204E+02 -.114E+02 -.321E+03   0.239E+02 0.132E+02 0.339E+03   -.349E+01 -.177E+01 -.183E+02   0.209E-02 0.113E-02 0.203E-01
   -.851E+01 -.154E+02 0.329E+03   0.103E+02 0.155E+02 -.350E+03   -.180E+01 0.501E+00 0.215E+02   0.276E-02 0.160E-02 0.149E-01
   0.828E+01 -.350E+01 -.327E+03   -.969E+01 0.171E+01 0.349E+03   0.147E+01 0.248E+01 -.215E+02   -.318E-03 0.246E-02 -.208E-01
   -.151E+02 -.926E+01 0.329E+03   0.156E+02 0.969E+01 -.351E+03   0.529E-01 -.118E+00 0.219E+02   0.329E-02 0.840E-03 -.248E-01
   -.760E+00 -.287E+00 -.326E+03   -.170E+01 -.119E+01 0.348E+03   0.300E+01 0.180E+01 -.212E+02   0.328E-02 -.654E-03 -.985E-04
   -.733E+00 -.344E+00 0.226E+00   0.522E+00 0.230E+00 -.268E+00   0.357E+00 0.195E+00 0.646E-02   -.761E-04 -.105E-03 0.826E-03
   -.126E+00 -.150E-01 -.134E+00   0.217E+00 0.165E+00 0.216E+00   -.857E-01 0.129E-01 -.246E-01   -.158E-04 -.308E-04 0.331E-02
   -.322E+00 0.363E-01 0.186E+00   0.267E+00 0.328E-01 -.187E+00   0.176E+00 0.146E+00 -.149E-01   0.136E-04 -.991E-04 -.420E-02
   -.732E+00 -.351E+00 0.257E+00   0.518E+00 0.238E+00 -.298E+00   0.359E+00 0.195E+00 0.423E-02   -.136E-03 -.181E-04 0.855E-03
   0.538E+00 0.848E-01 0.169E+01   -.288E+00 -.416E-01 -.166E+01   -.248E+00 -.191E+00 -.960E-01   0.410E-04 0.428E-04 0.325E-02
   0.216E+00 0.405E-01 0.206E+01   -.124E+00 -.864E-01 -.209E+01   0.241E-01 -.378E-01 -.956E-01   -.111E-03 0.428E-04 -.415E-02
 -----------------------------------------------------------------------------------------------
   -.466E+00 -.182E+00 0.816E+00   0.832E-13 0.620E-14 -.184E-12   0.452E+00 0.240E+00 -.798E+00   -.288E-03 -.158E-03 -.211E-02
 
 
 POSITION                                       TOTAL-FORCE (eV/Angst)
 -----------------------------------------------------------------------------------
      0.07506      1.65240      2.35804        -0.003045      0.009897      0.013955
      0.11253      0.05672      7.05124         0.041998     -0.083326     -0.013938
      1.50765      0.86852     11.86783        -0.006688     -0.008734     -0.164591
     -1.32948      4.07967      2.35783         0.000491     -0.005798     -0.008075
     -1.29285      2.48346      7.04665        -0.037587      0.074841      0.020949
      0.10276      3.29577     11.86826         0.003643     -0.002227     -0.185109
      2.86992      1.64500      2.35914        -0.011382     -0.003962      0.028967
      2.91540      0.05157      7.13720        -0.031984      0.075982      0.028220
      4.29630      0.85779     11.77329        -0.013372     -0.011516     -0.158006
      1.46498      4.07276      2.35847        -0.013251     -0.014085      0.007427
      1.51044      2.48131      7.14177         0.046601     -0.078765     -0.030589
      2.89114      3.28552     11.77202        -0.026935     -0.028237     -0.201097
      1.45088      0.82565      1.38445         0.013225      0.021057      0.015275
      0.10348      0.04814      3.33391         0.010562     -0.015482     -0.004861
      0.15373      1.71072      6.07730        -0.039815     -0.577441     -0.043027
      1.47735      0.86191      8.10650        -0.095180     -0.640888     -0.015573
      0.16939      0.09629     10.80335        -0.625463     -0.333551      0.120091
      0.07823      1.66197     12.83403        -0.657631     -0.380864      0.130465
      0.04610      3.25537      1.38378         0.017287      0.007605      0.014872
     -1.30154      2.47659      3.33194         0.004320      0.031518     -0.015462
     -1.25872      4.10386      6.08013         0.067191      0.609632      0.002213
      0.06457      3.25434      8.10868         0.041515      0.586332      0.043491
     -1.23480      2.52658     10.80483        -0.647027     -0.398447      0.129206
     -1.32690      4.09151     12.83328        -0.649736     -0.396012      0.142323
      4.29577      0.84817      1.35552        -0.018299     -0.013185      0.006450
      2.85092      0.01395      3.36049        -0.017971     -0.023424     -0.001094
      2.86763      1.65899      6.13932        -0.052912     -0.686874     -0.094338
      4.34313      0.90071      8.04528        -0.006783     -0.674096     -0.066419
      2.85640      0.02618     10.86184         0.515535      0.341191      0.073891
      2.91896      1.68160     12.76553         0.540746      0.322091      0.108471
      2.89066      3.27665      1.35533        -0.025919     -0.021155      0.006268
      1.44483      2.44049      3.35901         0.005229      0.023800     -0.011995
      1.46602      4.05075      6.14369         0.001275      0.673302      0.063034
      2.94065      3.29158      8.04938         0.061104      0.694761      0.085272
      1.44975      2.45430     10.86219         0.537651      0.305726      0.083155
      1.51418      4.10969     12.76572         0.535957      0.318632      0.112124
      2.75317      4.83637     14.18389         0.146380      0.080063     -0.036228
      1.52905      0.84933      4.72592         0.004941      0.161241      0.060483
      0.05160      1.63174      9.45484         0.120352      0.213306     -0.020034
      4.15770      2.40813     14.18402         0.144784      0.081058     -0.036836
      0.18322      3.34746      4.73867         0.003328     -0.149055     -0.061455
     -1.30289      4.12245      9.46763         0.116865     -0.084912     -0.127878
 -----------------------------------------------------------------------------------
    total drift:                               -0.014131      0.057144      0.016221


--------------------------------------------------------------------------------------------------------



  FREE ENERGIE OF THE ION-ELECTRON SYSTEM (eV)
  ---------------------------------------------------
  free  energy   TOTEN  =      -247.61140509 eV

  energy  without entropy=     -247.61140509  energy(sigma->0) =     -247.61140509
 


--------------------------------------------------------------------------------------------------------


    POTLOK:  cpu time    0.0399: real time    0.0401


--------------------------------------------------------------------------------------------------------


 stress matrix after NEB project (eV)
      0.15627      0.13846      0.03868
      0.13846      0.44133     -0.10225
      0.03868     -0.10225      0.41400
  FORCES: max atom, RMS     0.774105    0.426684
  FORCE total and by dimension    2.765231    0.694761
  Stress total and by dimension    0.672929    0.441326
     LOOP+:  cpu time 1191.2942: real time 1199.3622
    4ORBIT:  cpu time    0.0000: real time    0.0000
 


 total charge     
 
# of ion     s       p       d       tot
----------------------------------------
  1        0.479   0.782   7.238   8.498
  2        0.452   0.714   7.194   8.360
  3        0.453   0.729   7.393   8.574
  4        0.479   0.782   7.238   8.499
  5        0.453   0.728   7.392   8.573
  6        0.453   0.729   7.392   8.574
  7        0.425   0.662   7.334   8.421
  8        0.452   0.714   7.195   8.362
  9        0.453   0.715   7.197   8.365
 10        0.425   0.662   7.334   8.421
 11        0.453   0.729   7.392   8.575
 12        0.453   0.715   7.196   8.363
 13        1.574   3.399   0.000   4.973
 14        1.573   3.403   0.000   4.976
 15        1.563   3.440   0.000   5.004
 16        1.566   3.432   0.000   4.998
 17        1.564   3.442   0.000   5.007
 18        1.565   3.430   0.000   4.995
 19        1.574   3.398   0.000   4.973
 20        1.575   3.397   0.000   4.972
 21        1.566   3.432   0.000   4.998
 22        1.564   3.440   0.000   5.004
 23        1.565   3.438   0.000   5.003
 24        1.565   3.430   0.000   4.995
 25        1.562   3.448   0.000   5.010
 26        1.562   3.446   0.000   5.008
 27        1.571   3.410   0.000   4.981
 28        1.572   3.412   0.000   4.984
 29        1.570   3.414   0.000   4.985
 30        1.572   3.413   0.000   4.985
 31        1.562   3.448   0.000   5.010
 32        1.563   3.442   0.000   5.005
 33        1.572   3.413   0.000   4.985
 34        1.571   3.409   0.000   4.980
 35        1.571   3.408   0.000   4.980
 36        1.572   3.413   0.000   4.985
 37        0.084   0.175   0.000   0.259
 38        0.083   0.170   0.000   0.253
 39        0.085   0.175   0.000   0.260
 40        0.084   0.175   0.000   0.259
 41        0.084   0.172   0.000   0.256
 42        0.084   0.174   0.000   0.258
------------------------------------------------
tot       43.572  91.860  87.496 222.927
 


 magnetization (x)
 
# of ion     s       p       d       tot
----------------------------------------
  1        0.009   0.012   1.058   1.080
  2        0.009   0.011   1.124   1.144
  3        0.004   0.006  -0.009   0.000
  4        0.009   0.012   1.059   1.080
  5        0.003   0.005  -0.012  -0.003
  6        0.004   0.006  -0.010  -0.000
  7        0.003   0.004   0.006   0.013
  8        0.009   0.010   1.122   1.141
  9        0.009   0.010   1.113   1.132
 10        0.003   0.004   0.006   0.012
 11        0.003   0.005  -0.013  -0.004
 12        0.009   0.010   1.114   1.133
 13        0.001  -0.026   0.000  -0.025
 14        0.001  -0.028   0.000  -0.027
 15        0.001  -0.006   0.000  -0.006
 16        0.001  -0.036   0.000  -0.036
 17        0.001  -0.027   0.000  -0.026
 18        0.000  -0.027   0.000  -0.027
 19        0.001  -0.028   0.000  -0.027
 20        0.001  -0.027   0.000  -0.026
 21        0.001  -0.035   0.000  -0.035
 22        0.001  -0.006   0.000  -0.006
 23        0.001  -0.028   0.000  -0.028
 24        0.000  -0.026   0.000  -0.026
 25        0.000  -0.017   0.000  -0.017
 26        0.000  -0.018   0.000  -0.018
 27        0.000  -0.035   0.000  -0.035
 28        0.001  -0.048   0.000  -0.047
 29        0.001  -0.003   0.000  -0.003
 30        0.000  -0.064   0.000  -0.063
 31        0.000  -0.018   0.000  -0.018
 32        0.000  -0.018   0.000  -0.018
 33        0.001  -0.047   0.000  -0.047
 34        0.000  -0.036   0.000  -0.035
 35        0.001  -0.004   0.000  -0.003
 36        0.001  -0.063   0.000  -0.062
 37        0.001   0.001   0.000   0.002
 38        0.001   0.001   0.000   0.002
 39        0.000  -0.001   0.000  -0.001
 40        0.001   0.001   0.000   0.002
 41        0.001  -0.000   0.000   0.001
 42        0.001  -0.000   0.000   0.000
------------------------------------------------
tot        0.091  -0.577   6.559   6.073
 

 total amount of memory used by VASP on root node   107875. kBytes
========================================================================

   base      :      30000. kBytes
   nonlr-proj:       6809. kBytes
   fftplans  :       1658. kBytes
   grid      :       4480. kBytes
   one-center:        186. kBytes
   wavefun   :      64742. kBytes
 
  
  
 General timing and accounting informations for this job:
 ========================================================
  
                  Total CPU time used (sec):     1224.027
                            User time (sec):     1217.937
                          System time (sec):        6.091
                         Elapsed time (sec):     1235.701
  
                   Maximum memory used (kb):      673364.
                   Average memory used (kb):           0.
  
                          Minor page faults:       626263
                          Major page faults:          273
                 Voluntary context switches:         5967
