 vasp.5.4.1 05Feb16 (build Apr 23 2022 14:15:44) complex                        
  
 executed on           IFC91_ompi date 2025.01.03  13:02:35
 running on   16 total cores
 distrk:  each k-point on   16 cores,    1 groups
 distr:  one band on NCORES_PER_BAND=   8 cores,    2 groups


--------------------------------------------------------------------------------------------------------


 INCAR:
 POTCAR:    PAW_PBE Ti 08Apr2002                  
 POTCAR:    PAW_PBE O 08Apr2002                   
 POTCAR:    PAW_PBE Ti 08Apr2002                  
   VRHFIN =Ti: d3 s1                                                            
   LEXCH  = PE                                                                  
   EATOM  =    94.7928 eV,    6.9671 Ry                                         
                                                                                
   TITEL  = PAW_PBE Ti 08Apr2002                                                
   LULTRA =        F    use ultrasoft PP ?                                      
   IUNSCR =        1    unscreen: 0-lin 1-nonlin 2-no                           
   RPACOR =    2.200    partial core radius                                     
   POMASS =   47.880; ZVAL   =    4.000    mass and valenz                      
   RCORE  =    2.800    outmost cutoff radius                                   
   RWIGS  =    2.500; RWIGS  =    1.323    wigner-seitz radius (au A)           
   ENMAX  =  178.330; ENMIN  =  133.747 eV                                      
   RCLOC  =    2.215    cutoff for local pot                                    
   LCOR   =        T    correct aug charges                                     
   LPAW   =        T    paw PP                                                  
   EAUG   =  328.883                                                            
   DEXC   =    0.000                                                            
   RMAX   =    2.868    core radius for proj-oper                               
   RAUG   =    1.300    factor for augmentation sphere                          
   RDEP   =    2.885    radius for radial grids                                 
   RDEPT  =    2.320    core radius for aug-charge                              
                                                                                
   Atomic configuration                                                         
    9 entries                                                                   
     n  l   j            E        occ.                                          
     1  0  0.50     -4865.3608   2.0000                                         
     2  0  0.50      -533.1367   2.0000                                         
     2  1  1.50      -440.5031   6.0000                                         
     3  0  0.50       -59.3186   2.0000                                         
     3  1  1.50       -35.7012   6.0000                                         
     3  2  2.50        -1.9157   3.0000                                         
     4  0  0.50        -3.7291   1.0000                                         
     4  1  1.50        -4.0817   0.0000                                         
     4  3  2.50        -1.3606   0.0000                                         
   Description                                                                  
     l       E           TYP  RCUT    TYP  RCUT                                 
     2     -1.9156924     23  2.800                                             
     2     -0.4062961     23  2.800                                             
     0     -3.7290832     23  2.800                                             
     0     20.4087390     23  2.800                                             
     1     -5.4423304     23  2.800                                             
  local pseudopotential read in
  partial core-charges read in
  partial kinetic energy density read in
  atomic valenz-charges read in
  non local Contribution for L=           2  read in
    real space projection operators read in
  non local Contribution for L=           2  read in
    real space projection operators read in
  non local Contribution for L=           0  read in
    real space projection operators read in
  non local Contribution for L=           0  read in
    real space projection operators read in
  non local Contribution for L=           1  read in
    real space projection operators read in
    PAW grid and wavefunctions read in
 
   number of l-projection  operators is LMAX  =           5
   number of lm-projection operators is LMMAX =          15
 
 POTCAR:    PAW_PBE O 08Apr2002                   
   VRHFIN =O: s2p4                                                              
   LEXCH  = PE                                                                  
   EATOM  =   432.3788 eV,   31.7789 Ry                                         
                                                                                
   TITEL  = PAW_PBE O 08Apr2002                                                 
   LULTRA =        F    use ultrasoft PP ?                                      
   IUNSCR =        1    unscreen: 0-lin 1-nonlin 2-no                           
   RPACOR =    1.200    partial core radius                                     
   POMASS =   16.000; ZVAL   =    6.000    mass and valenz                      
   RCORE  =    1.520    outmost cutoff radius                                   
   RWIGS  =    1.550; RWIGS  =    0.820    wigner-seitz radius (au A)           
   ENMAX  =  400.000; ENMIN  =  300.000 eV                                      
   ICORE  =        2    local potential                                         
   LCOR   =        T    correct aug charges                                     
   LPAW   =        T    paw PP                                                  
   EAUG   =  605.392                                                            
   DEXC   =    0.000                                                            
   RMAX   =    1.553    core radius for proj-oper                               
   RAUG   =    1.300    factor for augmentation sphere                          
   RDEP   =    1.550    radius for radial grids                                 
   RDEPT  =    1.329    core radius for aug-charge                              
                                                                                
   Atomic configuration                                                         
    4 entries                                                                   
     n  l   j            E        occ.                                          
     1  0  0.50      -514.6923   2.0000                                         
     2  0  0.50       -23.9615   2.0000                                         
     2  1  0.50        -9.0305   4.0000                                         
     3  2  1.50        -9.5241   0.0000                                         
   Description                                                                  
     l       E           TYP  RCUT    TYP  RCUT                                 
     0    -23.9615318     23  1.200                                             
     0     -9.5240782     23  1.200                                             
     1     -9.0304911     23  1.520                                             
     1      8.1634956     23  1.520                                             
     2     -9.5240782      7  1.500                                             
  local pseudopotential read in
  partial core-charges read in
  partial kinetic energy density read in
  kinetic energy density of atom read in
  atomic valenz-charges read in
  non local Contribution for L=           0  read in
    real space projection operators read in
  non local Contribution for L=           0  read in
    real space projection operators read in
  non local Contribution for L=           1  read in
    real space projection operators read in
  non local Contribution for L=           1  read in
    real space projection operators read in
    PAW grid and wavefunctions read in
 
   number of l-projection  operators is LMAX  =           4
   number of lm-projection operators is LMMAX =           8
 
 Optimization of the real space projectors (new method)

 maximal supplied QI-value         = 13.42
 optimisation between [QCUT,QGAM] = [ 12.48, 25.09] = [ 43.60,176.28] Ry 
 Optimized for a Real-space Cutoff    1.56 Angstroem

   l    n(q)    QCUT    max X(q) W(low)/X(q) W(high)/X(q)  e(spline) 
   2     11    12.478    49.363    0.45E-03    0.34E-03    0.89E-06
   2     11    12.478    47.669    0.44E-03    0.33E-03    0.87E-06
   0     12    12.478    26.374    0.17E-03    0.37E-04    0.21E-05
   0     12    12.478    11.549    0.13E-03    0.31E-04    0.17E-05
   1     11    12.478     9.492    0.91E-05    0.64E-04    0.34E-06
 Optimization of the real space projectors (new method)

 maximal supplied QI-value         = 24.76
 optimisation between [QCUT,QGAM] = [ 12.38, 25.00] = [ 42.90,175.06] Ry 
 Optimized for a Real-space Cutoff    1.13 Angstroem

   l    n(q)    QCUT    max X(q) W(low)/X(q) W(high)/X(q)  e(spline) 
   0      8    12.378    20.381    0.16E-03    0.54E-05    0.27E-06
   0      8    12.378    15.268    0.17E-03    0.61E-05    0.29E-06
   1      8    12.378     5.964    0.38E-03    0.23E-03    0.28E-06
   1      8    12.378     5.382    0.33E-03    0.20E-03    0.25E-06
  PAW_PBE Ti 08Apr2002                  :
 energy of atom  1       EATOM=  -94.7928
 kinetic energy error for atom=    0.0001 (will be added to EATOM!!)
  PAW_PBE O 08Apr2002                   :
 energy of atom  2       EATOM= -432.3788
 kinetic energy error for atom=    0.0168 (will be added to EATOM!!)
 
 
 POSCAR: Ti O                                    
  positions in cartesian coordinates
  No initial velocities read in
 exchange correlation table for  LEXCH =        8
   RHO(1)=    0.500       N(1)  =     2000
   RHO(2)=  100.500       N(2)  =     4000

 VTST: version 3.1, (03/28/14)

 CHAIN: initializing optimizer
 
 OPT: Using VASP Conjugate-Gradient optimizer
 CHAIN: Read ICHAIN            0
 
 POSCAR: Ti O                                    
  positions in cartesian coordinates
  No initial velocities read in
 


--------------------------------------------------------------------------------------------------------


 ion  position               nearest neighbor table
   1  0.501  0.501  0.497-   5 1.98   7 1.98   5 1.98   7 1.98  12 2.01   6 2.01   2 3.08   4 3.08
                             2 3.08   4 3.08
   2  0.501  0.001  0.747-   6 1.98   8 1.98   6 1.98   8 1.98   7 2.01   9 2.01   3 3.08   1 3.08
                             1 3.08   3 3.08
   3  0.001  0.001  0.997-   9 1.98  11 1.98   9 1.98  11 1.98   8 2.01  10 2.01   2 3.08   4 3.08
                             4 3.08   2 3.08
   4  0.001  0.501  0.247-  12 1.98  10 1.98  10 1.98  12 1.98  11 2.01   5 2.01   3 3.08   1 3.08
                             3 3.08   1 3.08
   5  0.001  0.501  0.457-   1 1.98   1 1.98   4 2.01
   6  0.501  0.501  0.707-   2 1.98   2 1.98   1 2.01
   7  0.501  0.001  0.538-   1 1.98   1 1.98   2 2.01
   8  0.001  0.001  0.788-   2 1.98   2 1.98   3 2.01
   9  0.501  0.001  0.957-   3 1.98   3 1.98   2 2.01
  10  0.001  0.001  0.207-   4 1.98   4 1.98   3 2.01
  11  0.001  0.501  0.038-   3 1.98   3 1.98   4 2.01
  12  0.501  0.501  0.288-   4 1.98   4 1.98   1 2.01
 
  LATTYP: Found a triclinic cell.
 ALAT       =     3.8808960411
 B/A-ratio  =     1.4142877258
 C/A-ratio  =     2.4660834646
 COS(alpha) =     0.0000398167
 COS(beta)  =     0.0000623589
 COS(gamma) =     0.7071413209
  
  Lattice vectors:
  
 A1 = (   3.8808960342,  -0.0001965379,  -0.0001213218)
 A2 = (   3.8810925940,  -3.8811065262,  -0.0001103119)
 A3 = (   0.0002976251,   0.0000307338,  -9.5706135499)


Analysis of symmetry for initial positions (statically):
=====================================================================
 Subroutine PRICEL returns:
 Original cell was already a primitive cell.
 

 Routine SETGRP: Setting up the symmetry group for a 
 triclinic supercell.


 Subroutine GETGRP returns: Found  1 space group operations
 (whereof  1 operations were pure point group operations)
 out of a pool of  2 trial point group operations.


The static configuration has the point symmetry C_1 .


Analysis of symmetry for dynamics (positions and initial velocities):
=====================================================================
 Subroutine PRICEL returns:
 Original cell was already a primitive cell.
 

 Routine SETGRP: Setting up the symmetry group for a 
 triclinic supercell.


 Subroutine GETGRP returns: Found  1 space group operations
 (whereof  1 operations were pure point group operations)
 out of a pool of  2 trial point group operations.


The dynamic configuration has the point symmetry C_1 .


Analysis of structural, dynamic, and magnetic symmetry:
=====================================================================
 Subroutine PRICEL returns:
 Original cell was already a primitive cell.
 

 Routine SETGRP: Setting up the symmetry group for a 
 triclinic supercell.


 Subroutine GETGRP returns: Found  1 space group operations
 (whereof  1 operations were pure point group operations)
 out of a pool of  2 trial point group operations.


The magnetic configuration has the point symmetry C_1 .


 Subroutine INISYM returns: Found  1 space group operations
 (whereof  1 operations are pure point group operations),
 and found     1 'primitive' translations

 
 
 KPOINTS: KPOINTS created by Atomic Simulation Env

Automatic generation of k-mesh.
Space group operators:
 irot       det(A)        alpha          n_x          n_y          n_z        tau_x        tau_y        tau_z
    1     1.000000     0.000000     1.000000     0.000000     0.000000     0.000000     0.000000     0.000000
 
 Subroutine IBZKPT returns following result:
 ===========================================
 
 Found     40 irreducible k-points:
 
 Following reciprocal coordinates:
            Coordinates               Weight
  0.000000  0.000000  0.000000      1.000000
  0.166667  0.000000  0.000000      2.000000
  0.333333  0.000000 -0.000000      2.000000
  0.500000  0.000000  0.000000      1.000000
  0.000000  0.166667  0.000000      2.000000
  0.166667  0.166667  0.000000      2.000000
  0.333333  0.166667  0.000000      2.000000
  0.500000  0.166667  0.000000      2.000000
 -0.333333  0.166667  0.000000      2.000000
 -0.166667  0.166667  0.000000      2.000000
  0.000000  0.333333 -0.000000      2.000000
  0.166667  0.333333  0.000000      2.000000
  0.333333  0.333333 -0.000000      2.000000
  0.500000  0.333333  0.000000      2.000000
 -0.333333  0.333333  0.000000      2.000000
 -0.166667  0.333333 -0.000000      2.000000
  0.000000  0.500000  0.000000      1.000000
  0.166667  0.500000  0.000000      2.000000
  0.333333  0.500000 -0.000000      2.000000
  0.500000  0.500000  0.000000      1.000000
  0.000000  0.000000  0.500000      1.000000
  0.166667  0.000000  0.500000      2.000000
  0.333333  0.000000  0.500000      2.000000
  0.500000  0.000000  0.500000      1.000000
  0.000000  0.166667  0.500000      2.000000
  0.166667  0.166667  0.500000      2.000000
  0.333333  0.166667  0.500000      2.000000
  0.500000  0.166667  0.500000      2.000000
 -0.333333  0.166667  0.500000      2.000000
 -0.166667  0.166667  0.500000      2.000000
  0.000000  0.333333  0.500000      2.000000
  0.166667  0.333333  0.500000      2.000000
  0.333333  0.333333  0.500000      2.000000
  0.500000  0.333333  0.500000      2.000000
 -0.333333  0.333333  0.500000      2.000000
 -0.166667  0.333333  0.500000      2.000000
  0.000000  0.500000  0.500000      1.000000
  0.166667  0.500000  0.500000      2.000000
  0.333333  0.500000  0.500000      2.000000
  0.500000  0.500000  0.500000      1.000000
 
 Following cartesian coordinates:
            Coordinates               Weight
  0.000000  0.000000  0.000000      1.000000
  0.042945  0.000002  0.000001      2.000000
  0.085891  0.000004  0.000003      2.000000
  0.128836  0.000007  0.000004      1.000000
  0.000002  0.042945  0.000000      2.000000
  0.042948  0.042947  0.000001      2.000000
  0.085893  0.042950  0.000003      2.000000
  0.128838  0.042952  0.000004      2.000000
 -0.085889  0.042941 -0.000003      2.000000
 -0.042943  0.042943 -0.000001      2.000000
  0.000004  0.085891  0.000000      2.000000
  0.042950  0.085893  0.000002      2.000000
  0.085895  0.085895  0.000003      2.000000
  0.128841  0.085897  0.000004      2.000000
 -0.085886  0.085886 -0.000002      2.000000
 -0.042941  0.085888 -0.000001      2.000000
  0.000007  0.128836  0.000000      1.000000
  0.042952  0.128838  0.000002      2.000000
  0.085897  0.128840  0.000003      2.000000
  0.128843  0.128842  0.000004      1.000000
  0.000002  0.000000  0.052243      1.000000
  0.042947  0.000002  0.052245      2.000000
  0.085892  0.000004  0.052246      2.000000
  0.128838  0.000007  0.052247      1.000000
  0.000004  0.042945  0.052243      2.000000
  0.042949  0.042948  0.052245      2.000000
  0.085895  0.042950  0.052246      2.000000
  0.128840  0.042952  0.052247      2.000000
 -0.085887  0.042941  0.052241      2.000000
 -0.042942  0.042943  0.052242      2.000000
  0.000006  0.085891  0.052244      2.000000
  0.042951  0.085893  0.052245      2.000000
  0.085897  0.085895  0.052246      2.000000
  0.128842  0.085897  0.052248      2.000000
 -0.085885  0.085886  0.052241      2.000000
 -0.042939  0.085888  0.052242      2.000000
  0.000008  0.128836  0.052244      1.000000
  0.042954  0.128838  0.052245      2.000000
  0.085899  0.128840  0.052246      2.000000
  0.128844  0.128842  0.052248      1.000000
 


--------------------------------------------------------------------------------------------------------




 Dimension of arrays:
   k-points           NKPTS =     40   k-points in BZ     NKDIM =     40   number of bands    NBANDS=     46
   number of dos      NEDOS =    301   number of ions     NIONS =     12
   non local maximal  LDIM  =      5   non local SUM 2l+1 LMDIM =     15
   total plane-waves  NPLWV =  34560
   max r-space proj   IRMAX =   3864   max aug-charges    IRDMAX=  16756
   dimension x,y,z NGX =    24 NGY =   24 NGZ =   60
   dimension x,y,z NGXF=    48 NGYF=   48 NGZF=  120
   support grid    NGXF=    48 NGYF=   48 NGZF=  120
   ions per type =               4   8
 NGX,Y,Z   is equivalent  to a cutoff of  10.28, 10.28, 10.42 a.u.
 NGXF,Y,Z  is equivalent  to a cutoff of  20.56, 20.56, 20.84 a.u.


 I would recommend the setting:
   dimension x,y,z NGX =    23 NGY =   23 NGZ =   57
 SYSTEM =  unknown system                          
 POSCAR =  Ti O                                    

 Startparameter for this run:
   NWRITE =      2    write-flag & timer
   PREC   = normal    normal or accurate (medium, high low for compatibility)
   ISTART =      0    job   : 0-new  1-cont  2-samecut
   ICHARG =      2    charge: 1-file 2-atom 10-const
   ISPIN  =      2    spin polarized calculation?
   LNONCOLLINEAR =      F non collinear calculations
   LSORBIT =      F    spin-orbit coupling
   INIWAV =      1    electr: 0-lowe 1-rand  2-diag
   LASPH  =      F    aspherical Exc in radial PAW
   METAGGA=      F    non-selfconsistent MetaGGA calc.

 Electronic Relaxation 1
   ENCUT  =  600.0 eV  44.10 Ry    6.64 a.u.   7.75  7.75 19.11*2*pi/ulx,y,z
   ENINI  =  600.0     initial cutoff
   ENAUG  =  605.4 eV  augmentation charge cutoff
   NELM   =    500;   NELMIN=  2; NELMDL=-12     # of ELM steps 
   EDIFF  = 0.1E-05   stopping-criterion for ELM
   LREAL  =      T    real-space projection
   NLSPLINE    = F    spline interpolate recip. space projectors
   LCOMPAT=      F    compatible to vasp.4.4
   GGA_COMPAT  = T    GGA compatible to vasp.4.4-vasp.4.6
   LMAXPAW     = -100 max onsite density
   LMAXMIX     =    4 max onsite mixed and CHGCAR
   VOSKOWN=      0    Vosko Wilk Nusair interpolation
   ROPT   =   -0.00050  -0.00050
 Ionic relaxation
   EDIFFG = -.1E-01   stopping-criterion for IOM
   NSW    =    500    number of steps for IOM
   NBLOCK =      1;   KBLOCK =    500    inner block; outer block 
   IBRION =      2    ionic relax: 0-MD 1-quasi-New 2-CG
   NFREE  =      1    steps in history (QN), initial steepest desc. (CG)
   ISIF   =      2    stress and relaxation
   IWAVPR =     11    prediction:  0-non 1-charg 2-wave 3-comb
   ISYM   =      2    0-nonsym 1-usesym 2-fastsym
   LCORR  =      T    Harris-Foulkes like correction to forces

   POTIM  = 0.5000    time-step for ionic-motion
   TEIN   =    0.0    initial temperature
   TEBEG  =    0.0;   TEEND  =   0.0 temperature during run
   SMASS  =  -3.00    Nose mass-parameter (am)
   estimated Nose-frequenzy (Omega)   =  0.10E-29 period in steps =****** mass=  -0.344E-27a.u.
   SCALEE = 1.0000    scale energy and forces
   NPACO  =    256;   APACO  = 16.0  distance and # of slots for P.C.
   PSTRESS=    0.0 pullay stress

  Mass of Ions in am
   POMASS =  47.88 16.00
  Ionic Valenz
   ZVAL   =   4.00  6.00
  Atomic Wigner-Seitz radii
   RWIGS  =  -1.00 -1.00
  virtual crystal weights 
   VCA    =   1.00  1.00
   NELECT =      64.0000    total number of electrons
   NUPDOWN=      -1.0000    fix difference up-down

 DOS related values:
   EMIN   =  10.00;   EMAX   =-10.00  energy-range for DOS
   EFERMI =   0.00
   ISMEAR =     0;   SIGMA  =   0.03  broadening in eV -4-tet -1-fermi 0-gaus

 Electronic relaxation 2 (details)
   IALGO  =     48    algorithm
   LDIAG  =      T    sub-space diagonalisation (order eigenvalues)
   LSUBROT=      F    optimize rotation matrix (better conditioning)
   TURBO    =      0    0=normal 1=particle mesh
   IRESTART =      0    0=no restart 2=restart with 2 vectors
   NREBOOT  =      0    no. of reboots
   NMIN     =      0    reboot dimension
   EREF     =   0.00    reference energy to select bands
   IMIX   =      4    mixing-type and parameters
     AMIX     =   0.40;   BMIX     =  1.00
     AMIX_MAG =   1.60;   BMIX_MAG =  1.00
     AMIN     =   0.01
     WC   =   100.;   INIMIX=   1;  MIXPRE=   1;  MAXMIX= -45

 Intra band minimization:
   WEIMIN = 0.0010     energy-eigenvalue tresh-hold
   EBREAK =  0.54E-08  absolut break condition
   DEPER  =   0.30     relativ break condition  

   TIME   =   0.40     timestep for ELM

  volume/ion in A,a.u.               =      12.01        81.06
  Fermi-wavevector in a.u.,A,eV,Ry     =   1.248915  2.360108 21.222228  1.559790
  Thomas-Fermi vector in A             =   2.382980
 
 Write flags
   LWAVE  =      F    write WAVECAR
   LCHARG =      F    write CHGCAR
   LVTOT  =      F    write LOCPOT, total local potential
   LVHAR  =      F    write LOCPOT, Hartree potential only
   LELF   =      F    write electronic localiz. function (ELF)
   LORBIT =      0    0 simple, 1 ext, 2 COOP (PROOUT)


 Dipole corrections
   LMONO  =      F    monopole corrections only (constant potential shift)
   LDIPOL =      F    correct potential (dipole corrections)
   IDIPOL =      0    1-x, 2-y, 3-z, 4-all directions 
   EPSILON=  1.0000000 bulk dielectric constant

 LDA+U is selected, type is set to LDAUTYPE =  2
   angular momentum for each species LDAUL =     2   -1
   U (eV)           for each species LDAUU =   3.5  0.0
   J (eV)           for each species LDAUJ =   0.0  0.0
 Exchange correlation treatment:
   GGA     =    PE    GGA type
   LEXCH   =     8    internal setting for exchange type
   VOSKOWN=      0    Vosko Wilk Nusair interpolation
   LHFCALC =     F    Hartree Fock is set to
   LHFONE  =     F    Hartree Fock one center treatment
   AEXX    =    0.0000 exact exchange contribution

 Linear response parameters
   LEPSILON=     F    determine dielectric tensor
   LRPA    =     F    only Hartree local field effects (RPA)
   LNABLA  =     F    use nabla operator in PAW spheres
   LVEL    =     F    velocity operator in full k-point grid
   LINTERFAST=   F  fast interpolation
   KINTER  =     0    interpolate to denser k-point grid
   CSHIFT  =0.1000    complex shift for real part using Kramers Kronig
   OMEGAMAX=  -1.0    maximum frequency
   DEG_THRESHOLD= 0.2000000E-02 threshold for treating states as degnerate
   RTIME   =    0.100 relaxation time in fs

 Orbital magnetization related:
   ORBITALMAG=     F  switch on orbital magnetization
   LCHIMAG   =     F  perturbation theory with respect to B field
   DQ        =  0.001000  dq finite difference perturbation B field



--------------------------------------------------------------------------------------------------------


 conjugate gradient relaxation of ions
 charge density and potential will be updated during run
 spin polarized calculation
 RMM-DIIS sequential band-by-band
 perform sub-space diagonalisation
    before iterative eigenvector-optimisation
 modified Broyden-mixing scheme, WC =      100.0
 initial mixing is a Kerker type mixing with AMIX =  0.4000 and BMIX =      1.0000
 Hartree-type preconditioning will be used
 using additional bands           14
 real space projection scheme for non local part
 use partial core corrections
 calculate Harris-corrections to forces 
   (improved forces if not selfconsistent)
 use gradient corrections 
 use of overlap-Matrix (Vanderbilt PP)
 Gauss-broadening in eV      SIGMA  =   0.03


--------------------------------------------------------------------------------------------------------


  energy-cutoff  :      600.00
  volume of cell :      144.15
      direct lattice vectors                 reciprocal lattice vectors
     3.880896034 -0.000196538 -0.000121322     0.257672454  0.000013051  0.000008013
    -0.000196560  3.880909988 -0.000011010     0.000013049  0.257671527  0.000000828
    -0.000297625 -0.000030734  9.570613550     0.000003266  0.000000297  0.104486509

  length of vectors
     3.880896041  3.880909993  9.570613555     0.257672454  0.257671527  0.104486509


 
 k-points in units of 2pi/SCALE and weight: KPOINTS created by Atomic Simulation Env
   0.00000000  0.00000000  0.00000000       0.014
   0.04294541  0.00000218  0.00000134       0.028
   0.08589082  0.00000435  0.00000267       0.028
   0.12883623  0.00000653  0.00000401       0.014
   0.00000217  0.04294525  0.00000014       0.028
   0.04294758  0.04294743  0.00000147       0.028
   0.08589299  0.04294960  0.00000281       0.028
   0.12883840  0.04295178  0.00000414       0.028
  -0.08588864  0.04294090 -0.00000253       0.028
  -0.04294323  0.04294308 -0.00000120       0.028
   0.00000435  0.08589051  0.00000028       0.028
   0.04294976  0.08589268  0.00000161       0.028
   0.08589517  0.08589486  0.00000295       0.028
   0.12884058  0.08589703  0.00000428       0.028
  -0.08588647  0.08588616 -0.00000240       0.028
  -0.04294106  0.08588833 -0.00000106       0.028
   0.00000652  0.12883576  0.00000041       0.014
   0.04295193  0.12883794  0.00000175       0.028
   0.08589734  0.12884011  0.00000308       0.028
   0.12884275  0.12884229  0.00000442       0.014
   0.00000163  0.00000015  0.05224325       0.014
   0.04294704  0.00000232  0.05224459       0.028
   0.08589245  0.00000450  0.05224593       0.028
   0.12883786  0.00000667  0.05224726       0.014
   0.00000381  0.04294540  0.05224339       0.028
   0.04294922  0.04294758  0.05224473       0.028
   0.08589463  0.04294975  0.05224606       0.028
   0.12884003  0.04295193  0.05224740       0.028
  -0.08588701  0.04294105  0.05224072       0.028
  -0.04294160  0.04294323  0.05224206       0.028
   0.00000598  0.08589066  0.05224353       0.028
   0.04295139  0.08589283  0.05224487       0.028
   0.08589680  0.08589501  0.05224620       0.028
   0.12884221  0.08589718  0.05224754       0.028
  -0.08588483  0.08588631  0.05224086       0.028
  -0.04293943  0.08588848  0.05224220       0.028
   0.00000816  0.12883591  0.05224367       0.014
   0.04295357  0.12883809  0.05224500       0.028
   0.08589898  0.12884026  0.05224634       0.028
   0.12884438  0.12884244  0.05224768       0.014
 
 k-points in reciprocal lattice and weights: KPOINTS created by Atomic Simulation Env
   0.00000000  0.00000000  0.00000000       0.014
   0.16666667  0.00000000  0.00000000       0.028
   0.33333333  0.00000000 -0.00000000       0.028
   0.50000000  0.00000000  0.00000000       0.014
   0.00000000  0.16666667  0.00000000       0.028
   0.16666667  0.16666667  0.00000000       0.028
   0.33333333  0.16666667  0.00000000       0.028
   0.50000000  0.16666667  0.00000000       0.028
  -0.33333333  0.16666667  0.00000000       0.028
  -0.16666667  0.16666667  0.00000000       0.028
   0.00000000  0.33333333 -0.00000000       0.028
   0.16666667  0.33333333  0.00000000       0.028
   0.33333333  0.33333333 -0.00000000       0.028
   0.50000000  0.33333333  0.00000000       0.028
  -0.33333333  0.33333333  0.00000000       0.028
  -0.16666667  0.33333333 -0.00000000       0.028
   0.00000000  0.50000000  0.00000000       0.014
   0.16666667  0.50000000  0.00000000       0.028
   0.33333333  0.50000000 -0.00000000       0.028
   0.50000000  0.50000000  0.00000000       0.014
   0.00000000  0.00000000  0.50000000       0.014
   0.16666667  0.00000000  0.50000000       0.028
   0.33333333  0.00000000  0.50000000       0.028
   0.50000000  0.00000000  0.50000000       0.014
   0.00000000  0.16666667  0.50000000       0.028
   0.16666667  0.16666667  0.50000000       0.028
   0.33333333  0.16666667  0.50000000       0.028
   0.50000000  0.16666667  0.50000000       0.028
  -0.33333333  0.16666667  0.50000000       0.028
  -0.16666667  0.16666667  0.50000000       0.028
   0.00000000  0.33333333  0.50000000       0.028
   0.16666667  0.33333333  0.50000000       0.028
   0.33333333  0.33333333  0.50000000       0.028
   0.50000000  0.33333333  0.50000000       0.028
  -0.33333333  0.33333333  0.50000000       0.028
  -0.16666667  0.33333333  0.50000000       0.028
   0.00000000  0.50000000  0.50000000       0.014
   0.16666667  0.50000000  0.50000000       0.028
   0.33333333  0.50000000  0.50000000       0.028
   0.50000000  0.50000000  0.50000000       0.014
 
 position of ions in fractional coordinates (direct lattice) 
   0.50103796  0.50067116  0.49721069
   0.50084436  0.00078301  0.74719987
   0.00110026  0.00059100  0.99720857
   0.00081919  0.50061099  0.24718097
   0.00098601  0.50073390  0.45683480
   0.50099207  0.50073901  0.70687389
   0.50094537  0.00069729  0.53765653
   0.00095412  0.00076186  0.78767128
   0.50103751  0.00053318  0.95686845
   0.00093032  0.00057436  0.20684160
   0.00109138  0.50057677  0.03763360
   0.50093100  0.50053055  0.28762440
 
 position of ions in cartesian coordinates  (Angst):
   1.94422985  1.94294597  4.75854510
   1.94350234  0.00291738  7.15110045
   0.00397307  0.00226277  9.54389773
   0.00300721  1.94281845  2.36566789
   0.00359221  1.94328894  4.37218372
   1.94398933  1.94320285  6.76515050
   1.94395674  0.00259113  5.14564207
   0.00346828  0.00293231  7.53849733
   1.94418960  0.00194133  9.15775739
   0.00354880  0.00222250  1.97960094
   0.00412594  1.94269202  0.36017099
   1.94387714  1.94240672  2.75267571
 


--------------------------------------------------------------------------------------------------------


 k-point  1 :   0.0000 0.0000 0.0000  plane waves:    4791
 k-point  2 :   0.1667 0.0000 0.0000  plane waves:    4813
 k-point  3 :   0.3333 0.0000-0.0000  plane waves:    4824
 k-point  4 :   0.5000 0.0000 0.0000  plane waves:    4844
 k-point  5 :   0.0000 0.1667 0.0000  plane waves:    4813
 k-point  6 :   0.1667 0.1667 0.0000  plane waves:    4791
 k-point  7 :   0.3333 0.1667 0.0000  plane waves:    4814
 k-point  8 :   0.5000 0.1667 0.0000  plane waves:    4812
 k-point  9 :  -0.3333 0.1667 0.0000  plane waves:    4814
 k-point 10 :  -0.1667 0.1667 0.0000  plane waves:    4791
 k-point 11 :   0.0000 0.3333-0.0000  plane waves:    4824
 k-point 12 :   0.1667 0.3333 0.0000  plane waves:    4813
 k-point 13 :   0.3333 0.3333-0.0000  plane waves:    4797
 k-point 14 :   0.5000 0.3333 0.0000  plane waves:    4799
 k-point 15 :  -0.3333 0.3333 0.0000  plane waves:    4796
 k-point 16 :  -0.1667 0.3333-0.0000  plane waves:    4813
 k-point 17 :   0.0000 0.5000 0.0000  plane waves:    4844
 k-point 18 :   0.1667 0.5000 0.0000  plane waves:    4812
 k-point 19 :   0.3333 0.5000-0.0000  plane waves:    4799
 k-point 20 :   0.5000 0.5000 0.0000  plane waves:    4796
 k-point 21 :   0.0000 0.0000 0.5000  plane waves:    4838
 k-point 22 :   0.1667 0.0000 0.5000  plane waves:    4796
 k-point 23 :   0.3333 0.0000 0.5000  plane waves:    4820
 k-point 24 :   0.5000 0.0000 0.5000  plane waves:    4788
 k-point 25 :   0.0000 0.1667 0.5000  plane waves:    4796
 k-point 26 :   0.1667 0.1667 0.5000  plane waves:    4808
 k-point 27 :   0.3333 0.1667 0.5000  plane waves:    4812
 k-point 28 :   0.5000 0.1667 0.5000  plane waves:    4828
 k-point 29 :  -0.3333 0.1667 0.5000  plane waves:    4812
 k-point 30 :  -0.1667 0.1667 0.5000  plane waves:    4808
 k-point 31 :   0.0000 0.3333 0.5000  plane waves:    4820
 k-point 32 :   0.1667 0.3333 0.5000  plane waves:    4812
 k-point 33 :   0.3333 0.3333 0.5000  plane waves:    4816
 k-point 34 :   0.5000 0.3333 0.5000  plane waves:    4816
 k-point 35 :  -0.3333 0.3333 0.5000  plane waves:    4816
 k-point 36 :  -0.1667 0.3333 0.5000  plane waves:    4812
 k-point 37 :   0.0000 0.5000 0.5000  plane waves:    4788
 k-point 38 :   0.1667 0.5000 0.5000  plane waves:    4828
 k-point 39 :   0.3333 0.5000 0.5000  plane waves:    4816
 k-point 40 :   0.5000 0.5000 0.5000  plane waves:    4816

 maximum and minimum number of plane-waves per node :       620      584

 maximum number of plane-waves:      4844
 maximum index in each direction: 
   IXMAX=    8   IYMAX=    7   IZMAX=   19
   IXMIN=   -8   IYMIN=   -8   IZMIN=  -19

 WARNING: aliasing errors must be expected set NGX to  34 to avoid them
 WARNING: aliasing errors must be expected set NGY to  32 to avoid them
 WARNING: aliasing errors must be expected set NGZ to  78 to avoid them
 aliasing errors are usually negligible using standard VASP settings
 and one can safely disregard these warnings

 real space projection operators:
  total allocation   :       2458.84 KBytes
  max/ min on nodes  :        312.23        305.44


 parallel 3D FFT for wavefunctions:
    minimum data exchange during FFTs selected (reduces bandwidth)
 parallel 3D FFT for charge:
    minimum data exchange during FFTs selected (reduces bandwidth)


 total amount of memory used by VASP on root node    52528. kBytes
========================================================================

   base      :      30000. kBytes
   nonlr-proj:       1175. kBytes
   fftplans  :        721. kBytes
   grid      :       1748. kBytes
   one-center:         43. kBytes
   wavefun   :      18841. kBytes
 
     INWAV:  cpu time    0.0000: real time    0.0000
 Broyden mixing: mesh for mixing (old mesh)
   NGX = 15   NGY = 15   NGZ = 39
  (NGX  = 48   NGY  = 48   NGZ  =120)
  gives a total of   8775 points

 initial charge density was supplied:
 charge density of overlapping atoms calculated
 number of electron      64.0000000 magnetization      12.0000000
 keeping initial charge density in first step


--------------------------------------------------------------------------------------------------------


 Maximum index for non-local projection operator          480
 Maximum index for augmentation-charges         1142 (set IRDMAX)


--------------------------------------------------------------------------------------------------------


 First call to EWALD:  gamma=   0.338
 Maximum number of real-space cells 4x 4x 2
 Maximum number of reciprocal cells 2x 2x 5

 FEWALD executed in parallel
    FEWALD:  cpu time    0.0014: real time    0.0014


----------------------------------------- Iteration    1(   1)  ---------------------------------------


    POTLOK:  cpu time    0.0171: real time    0.0173
    SETDIJ:  cpu time    0.0048: real time    0.0048
    EDDIAG:  cpu time    0.5144: real time    0.5179
  RMM-DIIS:  cpu time    0.6183: real time    0.6220
    ORTHCH:  cpu time    0.0786: real time    0.0791
       DOS:  cpu time    0.0048: real time    0.0048
    --------------------------------------------
      LOOP:  cpu time    1.2403: real time    1.2493

 eigenvalue-minimisations  :  3680
 total energy-change (2. order) : 0.8520205E+03  (-0.2472527E+04)
 number of electron      64.0000000 magnetization      12.0000000
 augmentation part       64.0000000 magnetization      12.0000000

 Free energy of the ion-electron system (eV)
  ---------------------------------------------------
  alpha Z        PSCENC =       238.73309092
  Ewald energy   TEWEN  =     -2896.39203883
  -Hartree energ DENC   =     -1033.00803613
  -exchange      EXHF   =         0.00000000
  -V(xc)+E(xc)   XCENC  =        72.76897538
  PAW double counting   =      3272.88281646    -3120.93826237
  entropy T*S    EENTRO =        -0.00253888
  eigenvalues    EBANDS =       479.90984296
  atomic energy  EATOM  =      3838.06664596
  Solvation  Ediel_sol  =         0.00000000
  ---------------------------------------------------
  free energy    TOTEN  =       852.02049547 eV

  energy without entropy =      852.02303435  energy(sigma->0) =      852.02176491


--------------------------------------------------------------------------------------------------------




----------------------------------------- Iteration    1(   2)  ---------------------------------------


    EDDIAG:  cpu time    0.5003: real time    0.5037
  RMM-DIIS:  cpu time    0.6168: real time    0.6204
    ORTHCH:  cpu time    0.0803: real time    0.0808
       DOS:  cpu time    0.0047: real time    0.0047
    --------------------------------------------
      LOOP:  cpu time    1.2038: real time    1.2143

 eigenvalue-minimisations  :  3680
 total energy-change (2. order) :-0.5603521E+03  (-0.5590374E+03)
 number of electron      64.0000000 magnetization      12.0000000
 augmentation part       64.0000000 magnetization      12.0000000

 Free energy of the ion-electron system (eV)
  ---------------------------------------------------
  alpha Z        PSCENC =       238.73309092
  Ewald energy   TEWEN  =     -2896.39203883
  -Hartree energ DENC   =     -1033.00803613
  -exchange      EXHF   =         0.00000000
  -V(xc)+E(xc)   XCENC  =        72.76897538
  PAW double counting   =      3272.88281646    -3120.93826237
  entropy T*S    EENTRO =        -0.00233838
  eigenvalues    EBANDS =       -80.44241105
  atomic energy  EATOM  =      3838.06664596
  Solvation  Ediel_sol  =         0.00000000
  ---------------------------------------------------
  free energy    TOTEN  =       291.66844196 eV

  energy without entropy =      291.67078034  energy(sigma->0) =      291.66961115


--------------------------------------------------------------------------------------------------------




----------------------------------------- Iteration    1(   3)  ---------------------------------------


    EDDIAG:  cpu time    0.4980: real time    0.5014
  RMM-DIIS:  cpu time    0.6195: real time    0.6235
    ORTHCH:  cpu time    0.0787: real time    0.0792
       DOS:  cpu time    0.0049: real time    0.0049
    --------------------------------------------
      LOOP:  cpu time    1.2030: real time    1.2136

 eigenvalue-minimisations  :  3680
 total energy-change (2. order) :-0.2045191E+03  (-0.1977802E+03)
 number of electron      64.0000000 magnetization      12.0000000
 augmentation part       64.0000000 magnetization      12.0000000

 Free energy of the ion-electron system (eV)
  ---------------------------------------------------
  alpha Z        PSCENC =       238.73309092
  Ewald energy   TEWEN  =     -2896.39203883
  -Hartree energ DENC   =     -1033.00803613
  -exchange      EXHF   =         0.00000000
  -V(xc)+E(xc)   XCENC  =        72.76897538
  PAW double counting   =      3272.88281646    -3120.93826237
  entropy T*S    EENTRO =        -0.00291171
  eigenvalues    EBANDS =      -284.96089459
  atomic energy  EATOM  =      3838.06664596
  Solvation  Ediel_sol  =         0.00000000
  ---------------------------------------------------
  free energy    TOTEN  =        87.14938509 eV

  energy without entropy =       87.15229680  energy(sigma->0) =       87.15084095


--------------------------------------------------------------------------------------------------------




----------------------------------------- Iteration    1(   4)  ---------------------------------------


    EDDIAG:  cpu time    0.4991: real time    0.5023
  RMM-DIIS:  cpu time    0.6206: real time    0.6243
    ORTHCH:  cpu time    0.0789: real time    0.0794
       DOS:  cpu time    0.0046: real time    0.0046
    --------------------------------------------
      LOOP:  cpu time    1.2051: real time    1.2156

 eigenvalue-minimisations  :  3680
 total energy-change (2. order) :-0.1204336E+03  (-0.8959284E+02)
 number of electron      64.0000000 magnetization      12.0000000
 augmentation part       64.0000000 magnetization      12.0000000

 Free energy of the ion-electron system (eV)
  ---------------------------------------------------
  alpha Z        PSCENC =       238.73309092
  Ewald energy   TEWEN  =     -2896.39203883
  -Hartree energ DENC   =     -1033.00803613
  -exchange      EXHF   =         0.00000000
  -V(xc)+E(xc)   XCENC  =        72.76897538
  PAW double counting   =      3272.88281646    -3120.93826237
  entropy T*S    EENTRO =        -0.00052497
  eigenvalues    EBANDS =      -405.39692930
  atomic energy  EATOM  =      3838.06664596
  Solvation  Ediel_sol  =         0.00000000
  ---------------------------------------------------
  free energy    TOTEN  =       -33.28426288 eV

  energy without entropy =      -33.28373791  energy(sigma->0) =      -33.28400040


--------------------------------------------------------------------------------------------------------




----------------------------------------- Iteration    1(   5)  ---------------------------------------


    EDDIAG:  cpu time    0.5026: real time    0.5059
  RMM-DIIS:  cpu time    0.6191: real time    0.6227
    ORTHCH:  cpu time    0.0792: real time    0.0796
       DOS:  cpu time    0.0048: real time    0.0048
    --------------------------------------------
      LOOP:  cpu time    1.2074: real time    1.2182

 eigenvalue-minimisations  :  3680
 total energy-change (2. order) :-0.5417509E+02  (-0.4237512E+02)
 number of electron      64.0000000 magnetization      12.0000000
 augmentation part       64.0000000 magnetization      12.0000000

 Free energy of the ion-electron system (eV)
  ---------------------------------------------------
  alpha Z        PSCENC =       238.73309092
  Ewald energy   TEWEN  =     -2896.39203883
  -Hartree energ DENC   =     -1033.00803613
  -exchange      EXHF   =         0.00000000
  -V(xc)+E(xc)   XCENC  =        72.76897538
  PAW double counting   =      3272.88281646    -3120.93826237
  entropy T*S    EENTRO =        -0.00112822
  eigenvalues    EBANDS =      -459.57141365
  atomic energy  EATOM  =      3838.06664596
  Solvation  Ediel_sol  =         0.00000000
  ---------------------------------------------------
  free energy    TOTEN  =       -87.45935048 eV

  energy without entropy =      -87.45822226  energy(sigma->0) =      -87.45878637


--------------------------------------------------------------------------------------------------------




----------------------------------------- Iteration    1(   6)  ---------------------------------------


    EDDIAG:  cpu time    0.5006: real time    0.5039
  RMM-DIIS:  cpu time    0.6140: real time    0.6176
    ORTHCH:  cpu time    0.0782: real time    0.0786
       DOS:  cpu time    0.0013: real time    0.0013
    --------------------------------------------
      LOOP:  cpu time    1.1957: real time    1.2060

 eigenvalue-minimisations  :  3680
 total energy-change (2. order) :-0.2636438E+02  (-0.2038653E+02)
 number of electron      64.0000000 magnetization      12.0000000
 augmentation part       64.0000000 magnetization      12.0000000

 Free energy of the ion-electron system (eV)
  ---------------------------------------------------
  alpha Z        PSCENC =       238.73309092
  Ewald energy   TEWEN  =     -2896.39203883
  -Hartree energ DENC   =     -1033.00803613
  -exchange      EXHF   =         0.00000000
  -V(xc)+E(xc)   XCENC  =        72.76897538
  PAW double counting   =      3272.88281646    -3120.93826237
  entropy T*S    EENTRO =        -0.00000000
  eigenvalues    EBANDS =      -485.93691834
  atomic energy  EATOM  =      3838.06664596
  Solvation  Ediel_sol  =         0.00000000
  ---------------------------------------------------
  free energy    TOTEN  =      -113.82372695 eV

  energy without entropy =     -113.82372695  energy(sigma->0) =     -113.82372695


--------------------------------------------------------------------------------------------------------




----------------------------------------- Iteration    1(   7)  ---------------------------------------


    EDDIAG:  cpu time    0.4979: real time    0.5011
  RMM-DIIS:  cpu time    0.6108: real time    0.6147
    ORTHCH:  cpu time    0.0790: real time    0.0794
       DOS:  cpu time    0.0013: real time    0.0013
    --------------------------------------------
      LOOP:  cpu time    1.1908: real time    1.2010

 eigenvalue-minimisations  :  3680
 total energy-change (2. order) :-0.9518028E+01  (-0.7538368E+01)
 number of electron      64.0000000 magnetization      12.0000000
 augmentation part       64.0000000 magnetization      12.0000000

 Free energy of the ion-electron system (eV)
  ---------------------------------------------------
  alpha Z        PSCENC =       238.73309092
  Ewald energy   TEWEN  =     -2896.39203883
  -Hartree energ DENC   =     -1033.00803613
  -exchange      EXHF   =         0.00000000
  -V(xc)+E(xc)   XCENC  =        72.76897538
  PAW double counting   =      3272.88281646    -3120.93826237
  entropy T*S    EENTRO =        -0.00000000
  eigenvalues    EBANDS =      -495.45494656
  atomic energy  EATOM  =      3838.06664596
  Solvation  Ediel_sol  =         0.00000000
  ---------------------------------------------------
  free energy    TOTEN  =      -123.34175517 eV

  energy without entropy =     -123.34175517  energy(sigma->0) =     -123.34175517


--------------------------------------------------------------------------------------------------------




----------------------------------------- Iteration    1(   8)  ---------------------------------------


    EDDIAG:  cpu time    0.5030: real time    0.5073
  RMM-DIIS:  cpu time    0.6170: real time    0.6207
    ORTHCH:  cpu time    0.0784: real time    0.0789
       DOS:  cpu time    0.0013: real time    0.0013
    --------------------------------------------
      LOOP:  cpu time    1.2015: real time    1.2127

 eigenvalue-minimisations  :  3680
 total energy-change (2. order) :-0.3323794E+01  (-0.2942888E+01)
 number of electron      64.0000000 magnetization      12.0000000
 augmentation part       64.0000000 magnetization      12.0000000

 Free energy of the ion-electron system (eV)
  ---------------------------------------------------
  alpha Z        PSCENC =       238.73309092
  Ewald energy   TEWEN  =     -2896.39203883
  -Hartree energ DENC   =     -1033.00803613
  -exchange      EXHF   =         0.00000000
  -V(xc)+E(xc)   XCENC  =        72.76897538
  PAW double counting   =      3272.88281646    -3120.93826237
  entropy T*S    EENTRO =        -0.00000000
  eigenvalues    EBANDS =      -498.77874028
  atomic energy  EATOM  =      3838.06664596
  Solvation  Ediel_sol  =         0.00000000
  ---------------------------------------------------
  free energy    TOTEN  =      -126.66554888 eV

  energy without entropy =     -126.66554888  energy(sigma->0) =     -126.66554888


--------------------------------------------------------------------------------------------------------




----------------------------------------- Iteration    1(   9)  ---------------------------------------


    EDDIAG:  cpu time    0.5016: real time    0.5049
  RMM-DIIS:  cpu time    1.3897: real time    1.3980
    ORTHCH:  cpu time    0.0770: real time    0.0774
       DOS:  cpu time    0.0013: real time    0.0014
    --------------------------------------------
      LOOP:  cpu time    1.9715: real time    1.9864

 eigenvalue-minimisations  :  9067
 total energy-change (2. order) :-0.2151410E+01  (-0.2066125E+01)
 number of electron      64.0000000 magnetization      12.0000000
 augmentation part       64.0000000 magnetization      12.0000000

 Free energy of the ion-electron system (eV)
  ---------------------------------------------------
  alpha Z        PSCENC =       238.73309092
  Ewald energy   TEWEN  =     -2896.39203883
  -Hartree energ DENC   =     -1033.00803613
  -exchange      EXHF   =         0.00000000
  -V(xc)+E(xc)   XCENC  =        72.76897538
  PAW double counting   =      3272.88281646    -3120.93826237
  entropy T*S    EENTRO =        -0.00000000
  eigenvalues    EBANDS =      -500.93014988
  atomic energy  EATOM  =      3838.06664596
  Solvation  Ediel_sol  =         0.00000000
  ---------------------------------------------------
  free energy    TOTEN  =      -128.81695849 eV

  energy without entropy =     -128.81695849  energy(sigma->0) =     -128.81695849


--------------------------------------------------------------------------------------------------------




----------------------------------------- Iteration    1(  10)  ---------------------------------------


    EDDIAG:  cpu time    0.4988: real time    0.5021
  RMM-DIIS:  cpu time    1.5343: real time    1.5431
    ORTHCH:  cpu time    0.0778: real time    0.0783
       DOS:  cpu time    0.0013: real time    0.0013
    --------------------------------------------
      LOOP:  cpu time    2.1143: real time    2.1292

 eigenvalue-minimisations  :  9867
 total energy-change (2. order) :-0.1711910E+00  (-0.1763294E+00)
 number of electron      64.0000000 magnetization      12.0000000
 augmentation part       64.0000000 magnetization      12.0000000

 Free energy of the ion-electron system (eV)
  ---------------------------------------------------
  alpha Z        PSCENC =       238.73309092
  Ewald energy   TEWEN  =     -2896.39203883
  -Hartree energ DENC   =     -1033.00803613
  -exchange      EXHF   =         0.00000000
  -V(xc)+E(xc)   XCENC  =        72.76897538
  PAW double counting   =      3272.88281646    -3120.93826237
  entropy T*S    EENTRO =        -0.00000000
  eigenvalues    EBANDS =      -501.10134084
  atomic energy  EATOM  =      3838.06664596
  Solvation  Ediel_sol  =         0.00000000
  ---------------------------------------------------
  free energy    TOTEN  =      -128.98814945 eV

  energy without entropy =     -128.98814945  energy(sigma->0) =     -128.98814945


--------------------------------------------------------------------------------------------------------




----------------------------------------- Iteration    1(  11)  ---------------------------------------


    EDDIAG:  cpu time    0.5007: real time    0.5044
  RMM-DIIS:  cpu time    1.3614: real time    1.3691
    ORTHCH:  cpu time    0.0665: real time    0.0668
       DOS:  cpu time    0.0013: real time    0.0013
    --------------------------------------------
      LOOP:  cpu time    1.9318: real time    1.9465

 eigenvalue-minimisations  :  9308
 total energy-change (2. order) : 0.1167567E-02  (-0.2435824E-02)
 number of electron      64.0000000 magnetization      12.0000000
 augmentation part       64.0000000 magnetization      12.0000000

 Free energy of the ion-electron system (eV)
  ---------------------------------------------------
  alpha Z        PSCENC =       238.73309092
  Ewald energy   TEWEN  =     -2896.39203883
  -Hartree energ DENC   =     -1033.00803613
  -exchange      EXHF   =         0.00000000
  -V(xc)+E(xc)   XCENC  =        72.76897538
  PAW double counting   =      3272.88281646    -3120.93826237
  entropy T*S    EENTRO =        -0.00000000
  eigenvalues    EBANDS =      -501.10017328
  atomic energy  EATOM  =      3838.06664596
  Solvation  Ediel_sol  =         0.00000000
  ---------------------------------------------------
  free energy    TOTEN  =      -128.98698188 eV

  energy without entropy =     -128.98698188  energy(sigma->0) =     -128.98698188


--------------------------------------------------------------------------------------------------------




----------------------------------------- Iteration    1(  12)  ---------------------------------------


    EDDIAG:  cpu time    0.3944: real time    0.3963
  RMM-DIIS:  cpu time    1.1366: real time    1.1418
    ORTHCH:  cpu time    0.0673: real time    0.0676
       DOS:  cpu time    0.0013: real time    0.0013
    CHARGE:  cpu time    0.0789: real time    0.0793
    MIXING:  cpu time    0.0004: real time    0.0004
    --------------------------------------------
      LOOP:  cpu time    1.6804: real time    1.6910

 eigenvalue-minimisations  :  8815
 total energy-change (2. order) :-0.1052648E-03  (-0.1035795E-03)
 number of electron      63.9999898 magnetization       6.2171636
 augmentation part        7.7923588 magnetization       6.2942065

 Broyden mixing:
  rms(total) = 0.58832E+01    rms(broyden)= 0.58830E+01
  rms(prec ) = 0.68140E+01
  weight for this iteration     100.00

 Free energy of the ion-electron system (eV)
  ---------------------------------------------------
  alpha Z        PSCENC =       238.73309092
  Ewald energy   TEWEN  =     -2896.39203883
  -Hartree energ DENC   =     -1033.00803613
  -exchange      EXHF   =         0.00000000
  -V(xc)+E(xc)   XCENC  =        72.76897538
  PAW double counting   =      3272.88281646    -3120.93826237
  entropy T*S    EENTRO =        -0.00000000
  eigenvalues    EBANDS =      -501.10027854
  atomic energy  EATOM  =      3838.06664596
  Solvation  Ediel_sol  =         0.00000000
  ---------------------------------------------------
  free energy    TOTEN  =      -128.98708715 eV

  energy without entropy =     -128.98708715  energy(sigma->0) =     -128.98708715


--------------------------------------------------------------------------------------------------------




----------------------------------------- Iteration    1(  13)  ---------------------------------------


    POTLOK:  cpu time    0.0144: real time    0.0145
    SETDIJ:  cpu time    0.0046: real time    0.0046
    EDDIAG:  cpu time    0.3937: real time    0.3955
  RMM-DIIS:  cpu time    0.9706: real time    0.9751
    ORTHCH:  cpu time    0.0654: real time    0.0657
       DOS:  cpu time    0.0013: real time    0.0013
    CHARGE:  cpu time    0.0759: real time    0.0762
    MIXING:  cpu time    0.0005: real time    0.0005
    --------------------------------------------
      LOOP:  cpu time    1.5276: real time    1.5374

 eigenvalue-minimisations  :  7464
 total energy-change (2. order) : 0.4306030E+02  (-0.2220254E+02)
 number of electron      63.9999928 magnetization       3.3400193
 augmentation part        8.7613747 magnetization       3.0339231

 Broyden mixing:
  rms(total) = 0.19542E+01    rms(broyden)= 0.19537E+01
  rms(prec ) = 0.20861E+01
  weight for this iteration     100.00

 eigenvalues of (default mixing * dielectric matrix)
  average eigenvalue GAMMA=   0.9969
  0.9969

 Free energy of the ion-electron system (eV)
  ---------------------------------------------------
  alpha Z        PSCENC =       238.73309092
  Ewald energy   TEWEN  =     -2896.39203883
  -Hartree energ DENC   =     -1216.78594754
  -exchange      EXHF   =         0.00000000
  -V(xc)+E(xc)   XCENC  =        92.03752792
  PAW double counting   =      4307.95335242    -4158.13541235
  entropy T*S    EENTRO =        -0.00000000
  eigenvalues    EBANDS =      -291.40400856
  atomic energy  EATOM  =      3838.06664596
  Solvation  Ediel_sol  =         0.00000000
  ---------------------------------------------------
  free energy    TOTEN  =       -85.92679005 eV

  energy without entropy =      -85.92679005  energy(sigma->0) =      -85.92679005


--------------------------------------------------------------------------------------------------------




----------------------------------------- Iteration    1(  14)  ---------------------------------------


    POTLOK:  cpu time    0.0140: real time    0.0141
    SETDIJ:  cpu time    0.0045: real time    0.0045
    EDDIAG:  cpu time    0.3885: real time    0.3906
  RMM-DIIS:  cpu time    0.9253: real time    0.9295
    ORTHCH:  cpu time    0.0656: real time    0.0659
       DOS:  cpu time    0.0013: real time    0.0014
    CHARGE:  cpu time    0.0755: real time    0.0758
    MIXING:  cpu time    0.0006: real time    0.0006
    --------------------------------------------
      LOOP:  cpu time    1.4765: real time    1.4865

 eigenvalue-minimisations  :  7360
 total energy-change (2. order) :-0.5257602E+01  (-0.1089181E+01)
 number of electron      63.9999923 magnetization       0.2417148
 augmentation part        8.3137126 magnetization       0.1400779

 Broyden mixing:
  rms(total) = 0.12036E+01    rms(broyden)= 0.12036E+01
  rms(prec ) = 0.12587E+01
  weight for this iteration     100.00

 eigenvalues of (default mixing * dielectric matrix)
  average eigenvalue GAMMA=   1.1226
  0.8072  1.4381

 Free energy of the ion-electron system (eV)
  ---------------------------------------------------
  alpha Z        PSCENC =       238.73309092
  Ewald energy   TEWEN  =     -2896.39203883
  -Hartree energ DENC   =     -1176.73213461
  -exchange      EXHF   =         0.00000000
  -V(xc)+E(xc)   XCENC  =        85.69155366
  PAW double counting   =      4780.86626467    -4630.55935832
  entropy T*S    EENTRO =        -0.00000000
  eigenvalues    EBANDS =      -330.85841577
  atomic energy  EATOM  =      3838.06664596
  Solvation  Ediel_sol  =         0.00000000
  ---------------------------------------------------
  free energy    TOTEN  =       -91.18439232 eV

  energy without entropy =      -91.18439232  energy(sigma->0) =      -91.18439232


--------------------------------------------------------------------------------------------------------




----------------------------------------- Iteration    1(  15)  ---------------------------------------


    POTLOK:  cpu time    0.0141: real time    0.0142
    SETDIJ:  cpu time    0.0046: real time    0.0046
    EDDIAG:  cpu time    0.3840: real time    0.3858
  RMM-DIIS:  cpu time    0.9888: real time    0.9949
    ORTHCH:  cpu time    0.0674: real time    0.0678
       DOS:  cpu time    0.0014: real time    0.0014
    CHARGE:  cpu time    0.0795: real time    0.0799
    MIXING:  cpu time    0.0005: real time    0.0005
    --------------------------------------------
      LOOP:  cpu time    1.5415: real time    1.5528

 eigenvalue-minimisations  :  7360
 total energy-change (2. order) :-0.2356936E+01  (-0.6895768E+00)
 number of electron      63.9999923 magnetization      -0.0700596
 augmentation part        8.6068750 magnetization      -0.0721459

 Broyden mixing:
  rms(total) = 0.37966E+00    rms(broyden)= 0.37964E+00
  rms(prec ) = 0.38353E+00
  weight for this iteration     100.00

 eigenvalues of (default mixing * dielectric matrix)
  average eigenvalue GAMMA=   1.2150
  2.0850  0.9446  0.6154

 Free energy of the ion-electron system (eV)
  ---------------------------------------------------
  alpha Z        PSCENC =       238.73309092
  Ewald energy   TEWEN  =     -2896.39203883
  -Hartree energ DENC   =     -1165.44364801
  -exchange      EXHF   =         0.00000000
  -V(xc)+E(xc)   XCENC  =        84.79701076
  PAW double counting   =      5530.94098722    -5380.09335163
  entropy T*S    EENTRO =        -0.00000000
  eigenvalues    EBANDS =      -344.15002493
  atomic energy  EATOM  =      3838.06664596
  Solvation  Ediel_sol  =         0.00000000
  ---------------------------------------------------
  free energy    TOTEN  =       -93.54132853 eV

  energy without entropy =      -93.54132853  energy(sigma->0) =      -93.54132853


--------------------------------------------------------------------------------------------------------




----------------------------------------- Iteration    1(  16)  ---------------------------------------


    POTLOK:  cpu time    0.0139: real time    0.0140
    SETDIJ:  cpu time    0.0045: real time    0.0045
    EDDIAG:  cpu time    0.4040: real time    0.4062
  RMM-DIIS:  cpu time    1.0399: real time    1.0458
    ORTHCH:  cpu time    0.0663: real time    0.0670
       DOS:  cpu time    0.0015: real time    0.0015
    CHARGE:  cpu time    0.0818: real time    0.0823
    MIXING:  cpu time    0.0007: real time    0.0007
    --------------------------------------------
      LOOP:  cpu time    1.6137: real time    1.6261

 eigenvalue-minimisations  :  7763
 total energy-change (2. order) :-0.1379912E+00  (-0.5717239E-01)
 number of electron      63.9999922 magnetization       0.0931920
 augmentation part        8.6231820 magnetization       0.1122608

 Broyden mixing:
  rms(total) = 0.10602E+00    rms(broyden)= 0.10598E+00
  rms(prec ) = 0.11126E+00
  weight for this iteration     100.00

 eigenvalues of (default mixing * dielectric matrix)
  average eigenvalue GAMMA=   1.2075
  1.6557  1.6557  0.8723  0.6463

 Free energy of the ion-electron system (eV)
  ---------------------------------------------------
  alpha Z        PSCENC =       238.73309092
  Ewald energy   TEWEN  =     -2896.39203883
  -Hartree energ DENC   =     -1163.22618926
  -exchange      EXHF   =         0.00000000
  -V(xc)+E(xc)   XCENC  =        84.65348801
  PAW double counting   =      5627.00956121    -5476.26111483
  entropy T*S    EENTRO =        -0.00000000
  eigenvalues    EBANDS =      -346.26276288
  atomic energy  EATOM  =      3838.06664596
  Solvation  Ediel_sol  =         0.00000000
  ---------------------------------------------------
  free energy    TOTEN  =       -93.67931969 eV

  energy without entropy =      -93.67931969  energy(sigma->0) =      -93.67931969


--------------------------------------------------------------------------------------------------------




----------------------------------------- Iteration    1(  17)  ---------------------------------------


    POTLOK:  cpu time    0.0146: real time    0.0147
    SETDIJ:  cpu time    0.0045: real time    0.0046
    EDDIAG:  cpu time    0.4135: real time    0.4160
  RMM-DIIS:  cpu time    1.0064: real time    1.0136
    ORTHCH:  cpu time    0.0655: real time    0.0659
       DOS:  cpu time    0.0015: real time    0.0015
    CHARGE:  cpu time    0.0817: real time    0.0821
    MIXING:  cpu time    0.0006: real time    0.0006
    --------------------------------------------
      LOOP:  cpu time    1.5902: real time    1.6036

 eigenvalue-minimisations  :  7479
 total energy-change (2. order) :-0.1032235E-01  (-0.7097432E-02)
 number of electron      63.9999922 magnetization      -0.0006269
 augmentation part        8.5957184 magnetization       0.0050699

 Broyden mixing:
  rms(total) = 0.55161E-01    rms(broyden)= 0.55139E-01
  rms(prec ) = 0.59807E-01
  weight for this iteration     100.00

 eigenvalues of (default mixing * dielectric matrix)
  average eigenvalue GAMMA=   1.2149
  1.8421  1.8421  0.9512  0.7197  0.7197

 Free energy of the ion-electron system (eV)
  ---------------------------------------------------
  alpha Z        PSCENC =       238.73309092
  Ewald energy   TEWEN  =     -2896.39203883
  -Hartree energ DENC   =     -1165.07764855
  -exchange      EXHF   =         0.00000000
  -V(xc)+E(xc)   XCENC  =        84.72427460
  PAW double counting   =      5594.83123355    -5444.25728861
  entropy T*S    EENTRO =        -0.00000000
  eigenvalues    EBANDS =      -344.31791108
  atomic energy  EATOM  =      3838.06664596
  Solvation  Ediel_sol  =         0.00000000
  ---------------------------------------------------
  free energy    TOTEN  =       -93.68964204 eV

  energy without entropy =      -93.68964204  energy(sigma->0) =      -93.68964204


--------------------------------------------------------------------------------------------------------




----------------------------------------- Iteration    1(  18)  ---------------------------------------


    POTLOK:  cpu time    0.0145: real time    0.0147
    SETDIJ:  cpu time    0.0049: real time    0.0049
    EDDIAG:  cpu time    0.4158: real time    0.4183
  RMM-DIIS:  cpu time    1.2050: real time    1.2123
    ORTHCH:  cpu time    0.0791: real time    0.0796
       DOS:  cpu time    0.0015: real time    0.0015
    CHARGE:  cpu time    0.0911: real time    0.0916
    MIXING:  cpu time    0.0007: real time    0.0007
    --------------------------------------------
      LOOP:  cpu time    1.8138: real time    1.8276

 eigenvalue-minimisations  :  7516
 total energy-change (2. order) :-0.1048221E-01  (-0.3604603E-02)
 number of electron      63.9999922 magnetization      -0.0310140
 augmentation part        8.6052086 magnetization      -0.0335516

 Broyden mixing:
  rms(total) = 0.25740E-01    rms(broyden)= 0.25727E-01
  rms(prec ) = 0.27706E-01
  weight for this iteration     100.00

 eigenvalues of (default mixing * dielectric matrix)
  average eigenvalue GAMMA=   1.1966
  2.2756  1.3428  1.3428  0.8708  0.6738  0.6738

 Free energy of the ion-electron system (eV)
  ---------------------------------------------------
  alpha Z        PSCENC =       238.73309092
  Ewald energy   TEWEN  =     -2896.39203883
  -Hartree energ DENC   =     -1166.21704091
  -exchange      EXHF   =         0.00000000
  -V(xc)+E(xc)   XCENC  =        84.85384023
  PAW double counting   =      5630.62025906    -5480.09532133
  entropy T*S    EENTRO =        -0.00000000
  eigenvalues    EBANDS =      -343.26955935
  atomic energy  EATOM  =      3838.06664596
  Solvation  Ediel_sol  =         0.00000000
  ---------------------------------------------------
  free energy    TOTEN  =       -93.70012424 eV

  energy without entropy =      -93.70012424  energy(sigma->0) =      -93.70012424


--------------------------------------------------------------------------------------------------------




----------------------------------------- Iteration    1(  19)  ---------------------------------------


    POTLOK:  cpu time    0.0165: real time    0.0166
    SETDIJ:  cpu time    0.0052: real time    0.0052
    EDDIAG:  cpu time    0.5154: real time    0.5188
  RMM-DIIS:  cpu time    1.1941: real time    1.2016
    ORTHCH:  cpu time    0.0787: real time    0.0792
       DOS:  cpu time    0.0015: real time    0.0015
    CHARGE:  cpu time    0.0920: real time    0.0924
    MIXING:  cpu time    0.0009: real time    0.0009
    --------------------------------------------
      LOOP:  cpu time    1.9064: real time    1.9220

 eigenvalue-minimisations  :  7457
 total energy-change (2. order) :-0.1348039E-02  (-0.3944440E-03)
 number of electron      63.9999922 magnetization      -0.0353234
 augmentation part        8.6009707 magnetization      -0.0346042

 Broyden mixing:
  rms(total) = 0.14740E-01    rms(broyden)= 0.14738E-01
  rms(prec ) = 0.15314E-01
  weight for this iteration     100.00

 eigenvalues of (default mixing * dielectric matrix)
  average eigenvalue GAMMA=   1.2661
  2.7671  1.5468  1.5468  0.9448  0.8008  0.6281  0.6281

 Free energy of the ion-electron system (eV)
  ---------------------------------------------------
  alpha Z        PSCENC =       238.73309092
  Ewald energy   TEWEN  =     -2896.39203883
  -Hartree energ DENC   =     -1165.78370543
  -exchange      EXHF   =         0.00000000
  -V(xc)+E(xc)   XCENC  =        84.83488552
  PAW double counting   =      5642.81947954    -5492.26898530
  entropy T*S    EENTRO =        -0.00000000
  eigenvalues    EBANDS =      -343.71084467
  atomic energy  EATOM  =      3838.06664596
  Solvation  Ediel_sol  =         0.00000000
  ---------------------------------------------------
  free energy    TOTEN  =       -93.70147228 eV

  energy without entropy =      -93.70147228  energy(sigma->0) =      -93.70147228


--------------------------------------------------------------------------------------------------------




----------------------------------------- Iteration    1(  20)  ---------------------------------------


    POTLOK:  cpu time    0.0160: real time    0.0161
    SETDIJ:  cpu time    0.0047: real time    0.0047
    EDDIAG:  cpu time    0.5139: real time    0.5175
  RMM-DIIS:  cpu time    1.2173: real time    1.2251
    ORTHCH:  cpu time    0.0794: real time    0.0799
       DOS:  cpu time    0.0014: real time    0.0014
    CHARGE:  cpu time    0.0920: real time    0.0926
    MIXING:  cpu time    0.0010: real time    0.0010
    --------------------------------------------
      LOOP:  cpu time    1.9280: real time    1.9435

 eigenvalue-minimisations  :  7646
 total energy-change (2. order) :-0.5337847E-03  (-0.1021183E-03)
 number of electron      63.9999922 magnetization      -0.0155765
 augmentation part        8.6030669 magnetization      -0.0149167

 Broyden mixing:
  rms(total) = 0.69988E-02    rms(broyden)= 0.69980E-02
  rms(prec ) = 0.77482E-02
  weight for this iteration     100.00

 eigenvalues of (default mixing * dielectric matrix)
  average eigenvalue GAMMA=   1.2586
  2.9728  1.5569  1.5569  0.9918  0.9918  0.7497  0.6517  0.5973

 Free energy of the ion-electron system (eV)
  ---------------------------------------------------
  alpha Z        PSCENC =       238.73309092
  Ewald energy   TEWEN  =     -2896.39203883
  -Hartree energ DENC   =     -1165.78353865
  -exchange      EXHF   =         0.00000000
  -V(xc)+E(xc)   XCENC  =        84.84432215
  PAW double counting   =      5649.51379925    -5498.93783948
  entropy T*S    EENTRO =        -0.00000000
  eigenvalues    EBANDS =      -343.74644739
  atomic energy  EATOM  =      3838.06664596
  Solvation  Ediel_sol  =         0.00000000
  ---------------------------------------------------
  free energy    TOTEN  =       -93.70200607 eV

  energy without entropy =      -93.70200607  energy(sigma->0) =      -93.70200607


--------------------------------------------------------------------------------------------------------




----------------------------------------- Iteration    1(  21)  ---------------------------------------


    POTLOK:  cpu time    0.0153: real time    0.0154
    SETDIJ:  cpu time    0.0047: real time    0.0048
    EDDIAG:  cpu time    0.5154: real time    0.5186
  RMM-DIIS:  cpu time    1.1805: real time    1.1879
    ORTHCH:  cpu time    0.0780: real time    0.0784
       DOS:  cpu time    0.0014: real time    0.0014
    CHARGE:  cpu time    0.0914: real time    0.0920
    MIXING:  cpu time    0.0010: real time    0.0010
    --------------------------------------------
      LOOP:  cpu time    1.8898: real time    1.9045

 eigenvalue-minimisations  :  7373
 total energy-change (2. order) :-0.2204938E-04  (-0.3545125E-04)
 number of electron      63.9999922 magnetization      -0.0005941
 augmentation part        8.6041880 magnetization      -0.0005776

 Broyden mixing:
  rms(total) = 0.31765E-02    rms(broyden)= 0.31761E-02
  rms(prec ) = 0.40046E-02
  weight for this iteration     100.00

 eigenvalues of (default mixing * dielectric matrix)
  average eigenvalue GAMMA=   1.2968
  3.1446  1.9010  1.4286  1.4286  0.9552  0.8741  0.6800  0.6800  0.5791

 Free energy of the ion-electron system (eV)
  ---------------------------------------------------
  alpha Z        PSCENC =       238.73309092
  Ewald energy   TEWEN  =     -2896.39203883
  -Hartree energ DENC   =     -1166.01960179
  -exchange      EXHF   =         0.00000000
  -V(xc)+E(xc)   XCENC  =        84.85939660
  PAW double counting   =      5646.97667700    -5496.38608223
  entropy T*S    EENTRO =        -0.00000000
  eigenvalues    EBANDS =      -343.54011575
  atomic energy  EATOM  =      3838.06664596
  Solvation  Ediel_sol  =         0.00000000
  ---------------------------------------------------
  free energy    TOTEN  =       -93.70202812 eV

  energy without entropy =      -93.70202812  energy(sigma->0) =      -93.70202812


--------------------------------------------------------------------------------------------------------




----------------------------------------- Iteration    1(  22)  ---------------------------------------


    POTLOK:  cpu time    0.0153: real time    0.0154
    SETDIJ:  cpu time    0.0049: real time    0.0049
    EDDIAG:  cpu time    0.5153: real time    0.5188
  RMM-DIIS:  cpu time    1.1794: real time    1.1868
    ORTHCH:  cpu time    0.0779: real time    0.0784
       DOS:  cpu time    0.0014: real time    0.0014
    CHARGE:  cpu time    0.0912: real time    0.0917
    MIXING:  cpu time    0.0010: real time    0.0010
    --------------------------------------------
      LOOP:  cpu time    1.8882: real time    1.9028

 eigenvalue-minimisations  :  7360
 total energy-change (2. order) : 0.1758321E-04  (-0.5492631E-05)
 number of electron      63.9999922 magnetization       0.0009083
 augmentation part        8.6024750 magnetization       0.0009269

 Broyden mixing:
  rms(total) = 0.14370E-02    rms(broyden)= 0.14369E-02
  rms(prec ) = 0.14595E-02
  weight for this iteration     100.00

 eigenvalues of (default mixing * dielectric matrix)
  average eigenvalue GAMMA=   1.3183
  3.2754  2.0879  1.7807  1.3283  1.0957  0.9429  0.7345  0.6988  0.6440  0.5946

 Free energy of the ion-electron system (eV)
  ---------------------------------------------------
  alpha Z        PSCENC =       238.73309092
  Ewald energy   TEWEN  =     -2896.39203883
  -Hartree energ DENC   =     -1165.98287588
  -exchange      EXHF   =         0.00000000
  -V(xc)+E(xc)   XCENC  =        84.85185052
  PAW double counting   =      5643.99088662    -5493.38374285
  entropy T*S    EENTRO =        -0.00000000
  eigenvalues    EBANDS =      -343.58582699
  atomic energy  EATOM  =      3838.06664596
  Solvation  Ediel_sol  =         0.00000000
  ---------------------------------------------------
  free energy    TOTEN  =       -93.70201054 eV

  energy without entropy =      -93.70201054  energy(sigma->0) =      -93.70201054


--------------------------------------------------------------------------------------------------------




----------------------------------------- Iteration    1(  23)  ---------------------------------------


    POTLOK:  cpu time    0.0149: real time    0.0150
    SETDIJ:  cpu time    0.0050: real time    0.0050
    EDDIAG:  cpu time    0.5078: real time    0.5111
  RMM-DIIS:  cpu time    0.9225: real time    0.9281
    ORTHCH:  cpu time    0.0775: real time    0.0788
       DOS:  cpu time    0.0015: real time    0.0015
    CHARGE:  cpu time    0.0902: real time    0.0907
    MIXING:  cpu time    0.0012: real time    0.0012
    --------------------------------------------
      LOOP:  cpu time    1.6226: real time    1.6360

 eigenvalue-minimisations  :  5636
 total energy-change (2. order) : 0.3056126E-05  (-0.3467848E-06)
 number of electron      63.9999922 magnetization       0.0001296
 augmentation part        8.6023936 magnetization       0.0000744

 Broyden mixing:
  rms(total) = 0.65502E-03    rms(broyden)= 0.65501E-03
  rms(prec ) = 0.68060E-03
  weight for this iteration     100.00

 eigenvalues of (default mixing * dielectric matrix)
  average eigenvalue GAMMA=   1.3087
  3.1917  2.2529  2.0347  1.2333  1.2333  0.9284  0.9284  0.5846  0.6841  0.6622
  0.6622

 Free energy of the ion-electron system (eV)
  ---------------------------------------------------
  alpha Z        PSCENC =       238.73309092
  Ewald energy   TEWEN  =     -2896.39203883
  -Hartree energ DENC   =     -1165.97109214
  -exchange      EXHF   =         0.00000000
  -V(xc)+E(xc)   XCENC  =        84.85026524
  PAW double counting   =      5643.52942330    -5492.91761387
  entropy T*S    EENTRO =        -0.00000000
  eigenvalues    EBANDS =      -343.60068806
  atomic energy  EATOM  =      3838.06664596
  Solvation  Ediel_sol  =         0.00000000
  ---------------------------------------------------
  free energy    TOTEN  =       -93.70200748 eV

  energy without entropy =      -93.70200748  energy(sigma->0) =      -93.70200748


--------------------------------------------------------------------------------------------------------




----------------------------------------- Iteration    1(  24)  ---------------------------------------


    POTLOK:  cpu time    0.0159: real time    0.0160
    SETDIJ:  cpu time    0.0047: real time    0.0047
    EDDIAG:  cpu time    0.5081: real time    0.5114
  RMM-DIIS:  cpu time    0.8587: real time    0.8639
    ORTHCH:  cpu time    0.0776: real time    0.0780
       DOS:  cpu time    0.0014: real time    0.0014
    CHARGE:  cpu time    0.0896: real time    0.0900
    MIXING:  cpu time    0.0011: real time    0.0011
    --------------------------------------------
      LOOP:  cpu time    1.5589: real time    1.5714

 eigenvalue-minimisations  :  5198
 total energy-change (2. order) : 0.1067378E-05  (-0.2342158E-06)
 number of electron      63.9999922 magnetization       0.0000285
 augmentation part        8.6027301 magnetization       0.0000509

 Broyden mixing:
  rms(total) = 0.50004E-03    rms(broyden)= 0.50003E-03
  rms(prec ) = 0.51800E-03
  weight for this iteration     100.00

 eigenvalues of (default mixing * dielectric matrix)
  average eigenvalue GAMMA=   1.3021
  3.1125  2.4566  1.9578  1.3972  1.3972  1.0107  0.8838  0.8838  0.6606  0.6606
  0.6204  0.5835

 Free energy of the ion-electron system (eV)
  ---------------------------------------------------
  alpha Z        PSCENC =       238.73309092
  Ewald energy   TEWEN  =     -2896.39203883
  -Hartree energ DENC   =     -1165.95975551
  -exchange      EXHF   =         0.00000000
  -V(xc)+E(xc)   XCENC  =        84.84947379
  PAW double counting   =      5643.48502694    -5492.87159133
  entropy T*S    EENTRO =        -0.00000000
  eigenvalues    EBANDS =      -343.61285835
  atomic energy  EATOM  =      3838.06664596
  Solvation  Ediel_sol  =         0.00000000
  ---------------------------------------------------
  free energy    TOTEN  =       -93.70200641 eV

  energy without entropy =      -93.70200641  energy(sigma->0) =      -93.70200641


--------------------------------------------------------------------------------------------------------




----------------------------------------- Iteration    1(  25)  ---------------------------------------


    POTLOK:  cpu time    0.0152: real time    0.0153
    SETDIJ:  cpu time    0.0047: real time    0.0047
    EDDIAG:  cpu time    0.5091: real time    0.5124
  RMM-DIIS:  cpu time    0.7985: real time    0.8031
    ORTHCH:  cpu time    0.0779: real time    0.0784
       DOS:  cpu time    0.0014: real time    0.0014
    --------------------------------------------
      LOOP:  cpu time    1.4086: real time    1.4198

 eigenvalue-minimisations  :  4800
 total energy-change (2. order) :-0.1150866E-06  (-0.3809188E-07)
 number of electron      63.9999922 magnetization       0.0000285
 augmentation part        8.6027301 magnetization       0.0000509

 Free energy of the ion-electron system (eV)
  ---------------------------------------------------
  alpha Z        PSCENC =       238.73309092
  Ewald energy   TEWEN  =     -2896.39203883
  -Hartree energ DENC   =     -1165.95808612
  -exchange      EXHF   =         0.00000000
  -V(xc)+E(xc)   XCENC  =        84.84915120
  PAW double counting   =      5643.36149317    -5492.74883347
  entropy T*S    EENTRO =        -0.00000000
  eigenvalues    EBANDS =      -343.61342937
[...]
     44       4.8449      0.00000
     45       5.1742      0.00000
     46       5.5460      0.00000

 k-point    38 :       0.1667    0.5000    0.5000
  band No.  band energies     occupation 
      1     -16.3896      1.00000
      2     -16.3895      1.00000
      3     -15.7833      1.00000
      4     -15.7828      1.00000
      5     -15.6910      1.00000
      6     -15.6909      1.00000
      7     -15.6726      1.00000
      8     -15.6722      1.00000
      9      -3.7774      1.00000
     10      -3.7770      1.00000
     11      -3.6307      1.00000
     12      -3.6303      1.00000
     13      -3.3707      1.00000
     14      -3.3706      1.00000
     15      -2.9588      1.00000
     16      -2.9586      1.00000
     17      -2.7841      1.00000
     18      -2.7834      1.00000
     19      -1.9334      1.00000
     20      -1.9331      1.00000
     21      -1.8124      1.00000
     22      -1.8119      1.00000
     23      -1.4189      1.00000
     24      -1.4186      1.00000
     25      -1.1297      1.00000
     26      -1.1293      1.00000
     27      -0.5925      1.00000
     28      -0.5923      1.00000
     29      -0.0564      1.00000
     30      -0.0562      1.00000
     31       0.0418      1.00000
     32       0.0422      1.00000
     33       3.6007      0.00000
     34       3.6011      0.00000
     35       3.8041      0.00000
     36       3.8045      0.00000
     37       4.2163      0.00000
     38       4.2174      0.00000
     39       4.2220      0.00000
     40       4.2228      0.00000
     41       4.7416      0.00000
     42       4.7431      0.00000
     43       4.7691      0.00000
     44       4.7723      0.00000
     45       5.5507      0.00000
     46       5.6835      0.00000

 k-point    39 :       0.3333    0.5000    0.5000
  band No.  band energies     occupation 
      1     -16.0916      1.00000
      2     -16.0916      1.00000
      3     -15.7800      1.00000
      4     -15.7795      1.00000
      5     -15.6474      1.00000
      6     -15.6470      1.00000
      7     -15.5962      1.00000
      8     -15.5960      1.00000
      9      -3.9251      1.00000
     10      -3.9248      1.00000
     11      -3.6438      1.00000
     12      -3.6434      1.00000
     13      -3.6258      1.00000
     14      -3.6254      1.00000
     15      -2.8984      1.00000
     16      -2.8978      1.00000
     17      -2.8900      1.00000
     18      -2.8897      1.00000
     19      -2.5906      1.00000
     20      -2.5904      1.00000
     21      -2.4337      1.00000
     22      -2.4336      1.00000
     23      -2.1662      1.00000
     24      -2.1657      1.00000
     25      -1.2560      1.00000
     26      -1.2557      1.00000
     27      -0.5245      1.00000
     28      -0.5243      1.00000
     29       0.1124      1.00000
     30       0.1131      1.00000
     31       0.3508      1.00000
     32       0.3514      1.00000
     33       3.8073      0.00000
     34       3.8076      0.00000
     35       3.9853      0.00000
     36       3.9859      0.00000
     37       4.1829      0.00000
     38       4.1836      0.00000
     39       4.2104      0.00000
     40       4.2114      0.00000
     41       5.0375      0.00000
     42       5.0378      0.00000
     43       5.0641      0.00000
     44       5.0675      0.00000
     45       5.9547      0.00000
     46       6.4996      0.00000

 k-point    40 :       0.5000    0.5000    0.5000
  band No.  band energies     occupation 
      1     -15.8468      1.00000
      2     -15.8465      1.00000
      3     -15.8465      1.00000
      4     -15.8462      1.00000
      5     -15.6019      1.00000
      6     -15.6018      1.00000
      7     -15.6017      1.00000
      8     -15.6016      1.00000
      9      -3.7127      1.00000
     10      -3.7124      1.00000
     11      -3.7118      1.00000
     12      -3.7116      1.00000
     13      -3.5887      1.00000
     14      -3.5883      1.00000
     15      -3.5878      1.00000
     16      -3.5875      1.00000
     17      -2.9198      1.00000
     18      -2.9196      1.00000
     19      -2.9189      1.00000
     20      -2.9187      1.00000
     21      -2.4184      1.00000
     22      -2.4181      1.00000
     23      -2.4181      1.00000
     24      -2.4176      1.00000
     25      -0.9858      1.00000
     26      -0.9856      1.00000
     27      -0.9849      1.00000
     28      -0.9848      1.00000
     29       0.3485      1.00000
     30       0.3492      1.00000
     31       0.3502      1.00000
     32       0.3508      1.00000
     33       4.1276      0.00000
     34       4.1280      0.00000
     35       4.1292      0.00000
     36       4.1299      0.00000
     37       4.1415      0.00000
     38       4.1417      0.00000
     39       4.1418      0.00000
     40       4.1420      0.00000
     41       5.2396      0.00000
     42       5.2407      0.00000
     43       5.2419      0.00000
     44       5.2429      0.00000
     45       6.2744      0.00000
     46       6.3501      0.00000


--------------------------------------------------------------------------------------------------------


 soft charge-density along one line, spin component           1
         0         1         2         3         4         5         6         7         8         9
 total charge-density along one line
 
 soft charge-density along one line, spin component           2
         0         1         2         3         4         5         6         7         8         9
 total charge-density along one line
 
 pseudopotential strength for first ion, spin component:           1
 -4.207   0.000  -0.000   0.000   0.000  -4.412   0.000  -0.000
  0.000  -4.222  -0.000  -0.000  -0.000   0.000  -4.429  -0.000
 -0.000  -0.000  -4.953  -0.000   0.000  -0.000  -0.000  -5.226
  0.000  -0.000  -0.000  -4.221   0.000   0.000  -0.000  -0.000
  0.000  -0.000   0.000   0.000  -4.925   0.000  -0.000   0.000
 -4.412   0.000  -0.000   0.000   0.000  -4.520   0.000  -0.000
  0.000  -4.429  -0.000  -0.000  -0.000   0.000  -4.539  -0.000
 -0.000  -0.000  -5.226  -0.000   0.000  -0.000  -0.000  -5.423
  0.000  -0.000  -0.000  -4.428   0.000   0.000  -0.000  -0.000
  0.000  -0.000   0.000   0.000  -5.196   0.000  -0.000   0.000
  0.000  -0.000   0.001   0.000  -0.000   0.000  -0.000   0.001
 -0.000   0.000  -0.001  -0.000   0.000  -0.000   0.000  -0.001
  0.000   0.004   0.000   0.000   0.000   0.000   0.004   0.000
  0.000  -0.000  -0.000   0.000  -0.004   0.000  -0.000  -0.000
 -0.000   0.000  -0.000  -0.004   0.000  -0.000   0.000  -0.000
 pseudopotential strength for first ion, spin component:           2
 -4.207   0.000  -0.000   0.000  -0.000  -4.412   0.000  -0.000
  0.000  -4.222  -0.000  -0.000  -0.000   0.000  -4.429  -0.000
 -0.000  -0.000  -4.953  -0.000   0.000  -0.000  -0.000  -5.226
  0.000  -0.000  -0.000  -4.221   0.000   0.000  -0.000  -0.000
 -0.000  -0.000   0.000   0.000  -4.925  -0.000  -0.000   0.000
 -4.412   0.000  -0.000   0.000  -0.000  -4.520   0.000  -0.000
  0.000  -4.429  -0.000  -0.000  -0.000   0.000  -4.540  -0.000
 -0.000  -0.000  -5.226  -0.000   0.000  -0.000  -0.000  -5.423
  0.000  -0.000  -0.000  -4.428   0.000   0.000  -0.000  -0.000
 -0.000  -0.000   0.000   0.000  -5.196  -0.000  -0.000   0.000
  0.000  -0.000   0.001   0.000  -0.000   0.000  -0.000   0.001
 -0.000   0.000  -0.001  -0.000   0.000  -0.000   0.000  -0.001
  0.000   0.004   0.000   0.000   0.000   0.000   0.004   0.000
  0.000  -0.000  -0.000   0.000  -0.004   0.000  -0.000  -0.000
 -0.000   0.000  -0.000  -0.004   0.000  -0.000   0.000  -0.000
 total augmentation occupancy for first ion, spin component:           1
  2.598  -0.001   0.001  -0.000   0.000  -1.537   0.001  -0.000   0.000  -0.000  -0.000  -0.000  -0.000  -0.000   0.000
 -0.001   3.461   0.002  -0.000   0.001   0.001  -2.241  -0.002   0.000  -0.001   0.000   0.000   0.501  -0.000   0.000
  0.001   0.002  10.861   0.001  -0.002  -0.000  -0.002  -7.360  -0.001   0.002   0.048   0.006   0.000  -0.002  -0.000
 -0.000  -0.000   0.001   3.459  -0.002   0.000   0.000  -0.001  -2.239   0.001  -0.001  -0.000  -0.000  -0.000  -0.500
  0.000   0.001  -0.002  -0.002  11.318  -0.000  -0.001   0.002   0.001  -7.761   0.001   0.000   0.001  -0.398   0.001
 -1.537   0.001  -0.000   0.000  -0.000   0.915  -0.001   0.000  -0.000   0.000   0.000   0.000   0.000   0.000  -0.000
  0.001  -2.241  -0.002   0.000  -0.001  -0.001   1.470   0.001  -0.000   0.000  -0.000  -0.000  -0.357   0.000  -0.000
 -0.000  -0.002  -7.360  -0.001   0.002   0.000   0.001   5.089   0.000  -0.001  -0.024  -0.006  -0.000   0.001   0.000
  0.000   0.000  -0.001  -2.239   0.001  -0.000  -0.000   0.000   1.469  -0.001   0.001   0.000   0.000   0.000   0.356
 -0.000  -0.001   0.002   0.001  -7.761   0.000   0.000  -0.001  -0.001   5.413  -0.001  -0.000  -0.000   0.299  -0.001
 -0.000   0.000   0.048  -0.001   0.001   0.000  -0.000  -0.024   0.001  -0.001   2.105   0.118  -0.000  -0.001   0.000
 -0.000   0.000   0.006  -0.000   0.000   0.000  -0.000  -0.006   0.000  -0.000   0.118   0.012  -0.000  -0.000   0.000
 -0.000   0.501   0.000  -0.000   0.001   0.000  -0.357  -0.000   0.000  -0.000  -0.000  -0.000   0.562   0.000  -0.000
 -0.000  -0.000  -0.002  -0.000  -0.398   0.000   0.000   0.001   0.000   0.299  -0.001  -0.000   0.000   0.576  -0.000
  0.000   0.000  -0.000  -0.500   0.001  -0.000  -0.000   0.000   0.356  -0.001   0.000   0.000  -0.000  -0.000   0.563
 total augmentation occupancy for first ion, spin component:           2
  0.000   0.000   0.000   0.000   0.000  -0.000  -0.000  -0.000  -0.000  -0.000   0.000  -0.000  -0.000  -0.000  -0.000
  0.000   0.000   0.000   0.000   0.000  -0.000  -0.000  -0.000  -0.000  -0.000  -0.000   0.000  -0.000   0.000  -0.000
  0.000   0.000  -0.000   0.000  -0.000  -0.000  -0.000   0.000  -0.000   0.000   0.000   0.000  -0.000  -0.000  -0.000
  0.000   0.000   0.000   0.000   0.000  -0.000  -0.000  -0.000  -0.000  -0.000  -0.000   0.000   0.000  -0.000   0.000
  0.000   0.000  -0.000   0.000  -0.000  -0.000  -0.000   0.000  -0.000   0.000   0.000  -0.000   0.000  -0.000   0.000
 -0.000  -0.000  -0.000  -0.000  -0.000  -0.000   0.000   0.000   0.000   0.000  -0.000   0.000   0.000   0.000   0.000
 -0.000  -0.000  -0.000  -0.000  -0.000   0.000   0.000   0.000   0.000   0.000   0.000  -0.000   0.000  -0.000   0.000
 -0.000  -0.000   0.000  -0.000   0.000   0.000   0.000  -0.000   0.000  -0.000  -0.000  -0.000   0.000   0.000   0.000
 -0.000  -0.000  -0.000  -0.000  -0.000   0.000   0.000   0.000   0.000   0.000   0.000  -0.000  -0.000   0.000  -0.000
 -0.000  -0.000   0.000  -0.000   0.000   0.000   0.000  -0.000   0.000  -0.000  -0.000   0.000  -0.000   0.000  -0.000
  0.000  -0.000   0.000  -0.000   0.000  -0.000   0.000  -0.000   0.000  -0.000   0.000   0.000  -0.000  -0.000  -0.000
 -0.000   0.000   0.000   0.000  -0.000   0.000  -0.000  -0.000  -0.000   0.000   0.000   0.000   0.000  -0.000  -0.000
 -0.000  -0.000  -0.000   0.000   0.000   0.000   0.000   0.000  -0.000  -0.000  -0.000   0.000  -0.000  -0.000  -0.000
 -0.000   0.000  -0.000  -0.000  -0.000   0.000  -0.000   0.000   0.000   0.000  -0.000  -0.000  -0.000  -0.000  -0.000
 -0.000  -0.000  -0.000   0.000   0.000   0.000   0.000   0.000  -0.000  -0.000  -0.000  -0.000  -0.000  -0.000  -0.000


------------------------ aborting loop because EDIFF is reached ----------------------------------------


    CHARGE:  cpu time    0.0900: real time    0.0905
    FORLOC:  cpu time    0.0008: real time    0.0009
    FORNL :  cpu time    0.5467: real time    0.5496
    STRESS:  cpu time    1.6473: real time    1.6568
    FORCOR:  cpu time    0.0157: real time    0.0158
    FORHAR:  cpu time    0.0023: real time    0.0023
    MIXING:  cpu time    0.0012: real time    0.0012
    OFIELD:  cpu time    0.0000: real time    0.0000

 ---------------------------------------------------------------------------------------------

         DFTD3 V3.0 Rev 1        
 IVDW         = 12
 DF pbe       
 parameters
 VDW_S6       =    1.0000
 VDW_S8       =    0.7875
 VDW_A1       =    0.4289
 VDW_A2       =    4.4407
 k1-k3        =   16.0000    1.3333   -4.0000
 VDW_RADIUS   =   50.2022 A
 VDW_CNRADIUS =   21.1671 A
 Edisp (eV)   -2.54962

 E6    (eV) :    -1.5388
 E8    (eV) :    -1.0108
 % E8        : 39.64
    FORVDW:  cpu time    0.0601: real time    0.0605

  FORCE on cell =-STRESS in cart. coord.  units (eV):
  Direction    XX          YY          ZZ          XY          YZ          ZX
  --------------------------------------------------------------------------------------
  Alpha Z   238.73309   238.73309   238.73309
  Ewald   -1021.25042 -1021.15982  -853.98805    -0.04123    -0.05048    -0.19051
  Hartree   369.02696   369.04074   427.89808     0.01140    -0.00939    -0.02769
  E(xc)    -304.49496  -304.49545  -304.89413     0.00071     0.00084     0.00315
  Local    -328.18877  -328.27919  -545.23944     0.02433     0.05537     0.20098
  n-local  -180.70463  -180.69778  -180.03661    -0.00865     0.00423    -0.00302
  augment    73.69051    73.68927    73.28739     0.00033    -0.00009    -0.00015
  Kinetic  1155.97691  1155.97497  1146.92941     0.01135     0.00196     0.01193
  Fock        0.00000     0.00000     0.00000     0.00000     0.00000     0.00000
  vdW        -2.81004    -2.81003    -2.74723    -0.00001    -0.00001    -0.00003
  -------------------------------------------------------------------------------------
  Total      -0.02134    -0.00418    -0.05749    -0.00178     0.00243    -0.00534
  in kB      -0.23724    -0.04649    -0.63902    -0.01979     0.02706    -0.05931
  external pressure =       -0.31 kB  Pullay stress =        0.00 kB


 VOLUME and BASIS-vectors are now :
 -----------------------------------------------------------------------------
  energy-cutoff  :      600.00
  volume of cell :      144.15
      direct lattice vectors                 reciprocal lattice vectors
     3.880896034 -0.000196538 -0.000121322     0.257672454  0.000013051  0.000008013
    -0.000196560  3.880909988 -0.000011010     0.000013049  0.257671527  0.000000828
    -0.000297625 -0.000030734  9.570613550     0.000003266  0.000000297  0.104486509

  length of vectors
     3.880896041  3.880909993  9.570613555     0.257672454  0.257671527  0.104486509


 FORCES acting on ions
    electron-ion (+dipol)            ewald-force                    non-local-force                 convergence-correction
 -----------------------------------------------------------------------------------------------
   -.467E-02 -.152E-01 -.381E-01   0.302E-02 0.156E-01 0.382E-01   0.322E-02 -.456E-03 -.487E-02   -.484E-06 0.709E-06 0.190E-04
   -.113E-01 -.905E-02 -.120E-02   0.138E-01 0.716E-02 0.865E-02   -.291E-03 0.205E-02 -.251E-02   -.520E-06 0.653E-06 -.221E-04
   0.500E-02 0.159E-01 -.360E-01   -.672E-02 -.159E-01 0.381E-01   0.349E-02 -.215E-02 -.402E-02   0.690E-06 -.433E-07 -.153E-04
   -.156E-02 0.174E-01 -.923E-01   0.439E-02 -.177E-01 0.962E-01   -.675E-03 -.308E-03 -.435E-02   0.153E-05 0.739E-06 0.186E-04
   -.114E-01 -.248E-01 -.440E+02   0.251E-01 0.325E-01 0.515E+02   -.127E-01 -.806E-02 -.751E+01   0.502E-05 -.261E-05 -.382E-03
   -.137E-01 -.776E-02 -.439E+02   0.224E-01 0.190E-01 0.514E+02   -.884E-02 -.115E-01 -.753E+01   0.183E-05 -.109E-04 -.456E-03
   -.101E-03 0.135E-01 0.440E+02   -.318E-02 -.216E-01 -.515E+02   0.470E-02 0.931E-02 0.753E+01   0.877E-05 -.114E-04 0.385E-03
   0.354E-01 -.205E-01 0.441E+02   -.615E-01 0.236E-01 -.516E+02   0.271E-01 -.272E-02 0.752E+01   0.629E-05 -.112E-05 0.389E-03
   -.254E-01 0.323E-01 -.439E+02   0.419E-01 -.436E-01 0.514E+02   -.159E-01 0.123E-01 -.752E+01   -.502E-05 -.101E-05 -.400E-03
   0.119E-01 -.180E-01 -.440E+02   -.886E-02 0.256E-01 0.515E+02   -.246E-02 -.654E-02 -.752E+01   -.684E-05 -.354E-06 -.380E-03
   -.190E-01 -.887E-02 0.440E+02   0.271E-01 0.117E-01 -.515E+02   -.798E-02 -.312E-02 0.753E+01   0.155E-05 -.297E-05 0.406E-03
   0.323E-01 0.266E-01 0.439E+02   -.575E-01 -.361E-01 -.514E+02   0.245E-01 0.101E-01 0.752E+01   -.726E-05 -.210E-05 0.430E-03
 -----------------------------------------------------------------------------------------------
   -.248E-02 0.142E-02 -.337E-01   0.423E-15 0.448E-14 0.000E+00   0.141E-01 -.115E-02 -.318E-02   0.555E-05 -.304E-04 -.944E-05
 
 
 POSITION                                       TOTAL-FORCE (eV/Angst)
 -----------------------------------------------------------------------------------
      1.94423      1.94295      4.75855         0.000609     -0.000144     -0.001685
      1.94350      0.00292      7.15110         0.001283      0.000143      0.007997
      0.00397      0.00226      9.54390         0.000814     -0.002210      0.001124
      0.00301      1.94282      2.36567         0.001180     -0.000662      0.002570
      0.00359      1.94329      4.37218        -0.000079     -0.000408      0.002293
      1.94399      1.94320      6.76515        -0.001119     -0.000357     -0.001459
      1.94396      0.00259      5.14564         0.000461      0.001147     -0.003729
      0.00347      0.00293      7.53850         0.000076      0.000360     -0.006474
      1.94419      0.00194      9.15776        -0.000290      0.000919     -0.000600
      0.00355      0.00222      1.97960        -0.000388      0.000987      0.002788
      0.00413      1.94269      0.36017        -0.000829     -0.000323     -0.002287
      1.94388      1.94241      2.75268        -0.001718      0.000549     -0.000538
 -----------------------------------------------------------------------------------
    total drift:                                0.011604      0.000241     -0.036905


--------------------------------------------------------------------------------------------------------



  FREE ENERGIE OF THE ION-ELECTRON SYSTEM (eV)
  ---------------------------------------------------
  free  energy   TOTEN  =       -96.25162423 eV

  energy  without entropy=      -96.25162423  energy(sigma->0) =      -96.25162423
 


--------------------------------------------------------------------------------------------------------


    POTLOK:  cpu time    0.0211: real time    0.0212


--------------------------------------------------------------------------------------------------------


 stress matrix after NEB project (eV)
     -0.02134     -0.00178     -0.00534
     -0.00178     -0.00418      0.00243
     -0.00534      0.00243     -0.05749
  FORCES: max atom, RMS     0.008100    0.003767
  FORCE total and by dimension    0.013049    0.007997
  Stress total and by dimension    0.062077    0.057492


--------------------------------------------------------------------------------------------------------


  
 reached required accuracy - stopping structural energy minimisation
     LOOP+:  cpu time   41.5159: real time   41.8394
    4ORBIT:  cpu time    0.0000: real time    0.0000

 total amount of memory used by VASP on root node    52528. kBytes
========================================================================

   base      :      30000. kBytes
   nonlr-proj:       1175. kBytes
   fftplans  :        721. kBytes
   grid      :       1748. kBytes
   one-center:         43. kBytes
   wavefun   :      18841. kBytes
 
  
  
 General timing and accounting informations for this job:
 ========================================================
  
                  Total CPU time used (sec):       43.821
                            User time (sec):       43.118
                          System time (sec):        0.704
                         Elapsed time (sec):       46.118
  
                   Maximum memory used (kb):      354268.
                   Average memory used (kb):           0.
  
                          Minor page faults:        69617
                          Major page faults:          249
                 Voluntary context switches:         4522
