 vasp.5.4.1 05Feb16 (build Apr 23 2022 14:15:44) complex                        
  
 executed on           IFC91_ompi date 2024.10.27  23:38:42
 running on   48 total cores
 distrk:  each k-point on   48 cores,    1 groups
 distr:  one band on NCORES_PER_BAND=   8 cores,    6 groups


--------------------------------------------------------------------------------------------------------


 INCAR:
 POTCAR:    PAW_PBE Co 02Aug2007                  
 POTCAR:    PAW_PBE O 08Apr2002                   
 POTCAR:    PAW_PBE Co 02Aug2007                  
   VRHFIN =Co: d8 s1                                                            
   LEXCH  = PE                                                                  
   EATOM  =   813.3670 eV,   59.7808 Ry                                         
                                                                                
   TITEL  = PAW_PBE Co 02Aug2007                                                
   LULTRA =        F    use ultrasoft PP ?                                      
   IUNSCR =        1    unscreen: 0-lin 1-nonlin 2-no                           
   RPACOR =    2.000    partial core radius                                     
   POMASS =   58.933; ZVAL   =    9.000    mass and valenz                      
   RCORE  =    2.300    outmost cutoff radius                                   
   RWIGS  =    2.460; RWIGS  =    1.302    wigner-seitz radius (au A)           
   ENMAX  =  267.968; ENMIN  =  200.976 eV                                      
   RCLOC  =    1.203    cutoff for local pot                                    
   LCOR   =        T    correct aug charges                                     
   LPAW   =        T    paw PP                                                  
   EAUG   =  477.818                                                            
   DEXC   =    0.000                                                            
   RMAX   =    2.360    core radius for proj-oper                               
   RAUG   =    1.300    factor for augmentation sphere                          
   RDEP   =    2.393    radius for radial grids                                 
   RDEPT  =    1.864    core radius for aug-charge                              
                                                                                
   Atomic configuration                                                         
    9 entries                                                                   
     n  l   j            E        occ.                                          
     1  0  0.50     -7587.6674   2.0000                                         
     2  0  0.50      -893.6084   2.0000                                         
     2  1  1.50      -764.5805   6.0000                                         
     3  0  0.50       -97.5973   2.0000                                         
     3  1  1.50       -60.9648   6.0000                                         
     3  2  2.50        -4.2382   8.0000                                         
     4  0  0.50        -4.3746   1.0000                                         
     4  1  1.50        -4.0817   0.0000                                         
     4  3  2.50        -1.3606   0.0000                                         
   Description                                                                  
     l       E           TYP  RCUT    TYP  RCUT                                 
     2     -4.2382362     23  2.300                                             
     2     -5.5988188     23  2.300                                             
     0     -4.3745797     23  2.300                                             
     0      5.7660125     23  2.300                                             
     1     -2.7211652     23  2.300                                             
     1     16.9860234     23  2.300                                             
  local pseudopotential read in
  partial core-charges read in
  partial kinetic energy density read in
  atomic valenz-charges read in
  non local Contribution for L=           2  read in
    real space projection operators read in
  non local Contribution for L=           2  read in
    real space projection operators read in
  non local Contribution for L=           0  read in
    real space projection operators read in
  non local Contribution for L=           0  read in
    real space projection operators read in
  non local Contribution for L=           1  read in
    real space projection operators read in
  non local Contribution for L=           1  read in
    real space projection operators read in
    PAW grid and wavefunctions read in
 
   number of l-projection  operators is LMAX  =           6
   number of lm-projection operators is LMMAX =          18
 
 POTCAR:    PAW_PBE O 08Apr2002                   
   VRHFIN =O: s2p4                                                              
   LEXCH  = PE                                                                  
   EATOM  =   432.3788 eV,   31.7789 Ry                                         
                                                                                
   TITEL  = PAW_PBE O 08Apr2002                                                 
   LULTRA =        F    use ultrasoft PP ?                                      
   IUNSCR =        1    unscreen: 0-lin 1-nonlin 2-no                           
   RPACOR =    1.200    partial core radius                                     
   POMASS =   16.000; ZVAL   =    6.000    mass and valenz                      
   RCORE  =    1.520    outmost cutoff radius                                   
   RWIGS  =    1.550; RWIGS  =    0.820    wigner-seitz radius (au A)           
   ENMAX  =  400.000; ENMIN  =  300.000 eV                                      
   ICORE  =        2    local potential                                         
   LCOR   =        T    correct aug charges                                     
   LPAW   =        T    paw PP                                                  
   EAUG   =  605.392                                                            
   DEXC   =    0.000                                                            
   RMAX   =    1.553    core radius for proj-oper                               
   RAUG   =    1.300    factor for augmentation sphere                          
   RDEP   =    1.550    radius for radial grids                                 
   RDEPT  =    1.329    core radius for aug-charge                              
                                                                                
   Atomic configuration                                                         
    4 entries                                                                   
     n  l   j            E        occ.                                          
     1  0  0.50      -514.6923   2.0000                                         
     2  0  0.50       -23.9615   2.0000                                         
     2  1  0.50        -9.0305   4.0000                                         
     3  2  1.50        -9.5241   0.0000                                         
   Description                                                                  
     l       E           TYP  RCUT    TYP  RCUT                                 
     0    -23.9615318     23  1.200                                             
     0     -9.5240782     23  1.200                                             
     1     -9.0304911     23  1.520                                             
     1      8.1634956     23  1.520                                             
     2     -9.5240782      7  1.500                                             
  local pseudopotential read in
  partial core-charges read in
  partial kinetic energy density read in
  kinetic energy density of atom read in
  atomic valenz-charges read in
  non local Contribution for L=           0  read in
    real space projection operators read in
  non local Contribution for L=           0  read in
    real space projection operators read in
  non local Contribution for L=           1  read in
    real space projection operators read in
  non local Contribution for L=           1  read in
    real space projection operators read in
    PAW grid and wavefunctions read in
 
   number of l-projection  operators is LMAX  =           4
   number of lm-projection operators is LMMAX =           8
 
 Optimization of the real space projectors (new method)

 maximal supplied QI-value         = 16.25
 optimisation between [QCUT,QGAM] = [ 12.51, 25.03] = [ 43.85,175.40] Ry 
 Optimized for a Real-space Cutoff    1.31 Angstroem

   l    n(q)    QCUT    max X(q) W(low)/X(q) W(high)/X(q)  e(spline) 
   2      9    12.514    65.824    0.30E-03    0.46E-03    0.43E-06
   2      9    12.514    61.429    0.31E-03    0.46E-03    0.44E-06
   0     10    12.514    56.174    0.90E-04    0.33E-03    0.30E-06
   0     10    12.514    31.263    0.81E-04    0.30E-03    0.28E-06
   1      9    12.514    19.828    0.38E-03    0.65E-04    0.24E-06
   1      9    12.514    15.139    0.32E-03    0.60E-04    0.20E-06
 Optimization of the real space projectors (new method)

 maximal supplied QI-value         = 24.76
 optimisation between [QCUT,QGAM] = [ 12.38, 25.00] = [ 42.90,175.06] Ry 
 Optimized for a Real-space Cutoff    1.13 Angstroem

   l    n(q)    QCUT    max X(q) W(low)/X(q) W(high)/X(q)  e(spline) 
   0      8    12.378    20.381    0.16E-03    0.54E-05    0.27E-06
   0      8    12.378    15.268    0.17E-03    0.61E-05    0.29E-06
   1      8    12.378     5.964    0.38E-03    0.23E-03    0.28E-06
   1      8    12.378     5.382    0.33E-03    0.20E-03    0.25E-06
  PAW_PBE Co 02Aug2007                  :
 energy of atom  1       EATOM= -813.3670
 kinetic energy error for atom=    0.0018 (will be added to EATOM!!)
  PAW_PBE O 08Apr2002                   :
 energy of atom  2       EATOM= -432.3788
 kinetic energy error for atom=    0.0168 (will be added to EATOM!!)
 
 
 POSCAR: Co  O                                   
  positions in cartesian coordinates
  No initial velocities read in
 exchange correlation table for  LEXCH =        8
   RHO(1)=    0.500       N(1)  =     2000
   RHO(2)=  100.500       N(2)  =     4000

 VTST: version 3.1, (03/28/14)

 CHAIN: initializing optimizer
 
 OPT: Using VASP Conjugate-Gradient optimizer
 CHAIN: Read ICHAIN            0
 
 POSCAR: Co  O                                   
  positions in cartesian coordinates
  No initial velocities read in
 


--------------------------------------------------------------------------------------------------------


 ion  position               nearest neighbor table
   1  0.167  0.333  0.167-  20 1.88  14 1.88  32 1.88  25 1.88  19 1.88  13 1.88   7 2.82   7 2.82
                             4 2.82   4 2.82  10 2.82  10 2.82
   2  0.000  0.000  0.500-  21 1.88  28 1.88  15 1.88  16 1.88  33 1.88  34 1.88   8 2.82   8 2.82
                             5 2.82   5 2.82  11 2.82  11 2.82
   3  0.333  0.167  0.833-  29 1.88  17 1.88  35 1.88  30 1.88  24 1.88  18 1.88   9 2.82   9 2.82
                             6 2.82   6 2.82  12 2.82  12 2.82
   4  0.167  0.833  0.167-  14 1.88  20 1.88  26 1.88  31 1.88  13 1.88  19 1.88  10 2.82  10 2.82
                             1 2.82   1 2.82   7 2.82   7 2.82
   5  0.000  0.500  0.500-  15 1.88  34 1.88  22 1.88  27 1.88  28 1.88  21 1.88  11 2.82  11 2.82
                             2 2.82   2 2.82   8 2.82   8 2.82
   6  0.333  0.667  0.833-  35 1.88  29 1.88  23 1.88  36 1.88  18 1.88  24 1.88  12 2.82  12 2.82
                             3 2.82   3 2.82   9 2.82   9 2.82
   7  0.667  0.333  0.167-  32 1.88  26 1.88  20 1.88  13 1.88  31 1.88  25 1.88   1 2.82   1 2.82
                            10 2.82  10 2.82   4 2.82   4 2.82
   8  0.500  0.000  0.500-  16 1.88  33 1.88  22 1.88  27 1.88  28 1.88  21 1.88   2 2.82   2 2.82
                            11 2.82  11 2.82   5 2.82   5 2.82
   9  0.833  0.167  0.833-  17 1.88  23 1.88  29 1.88  18 1.88  36 1.88  30 1.88   3 2.82   3 2.82
                            12 2.82  12 2.82   6 2.82   6 2.82
  10  0.667  0.833  0.167-  26 1.88  14 1.88  32 1.88  19 1.88  25 1.88  31 1.88   4 2.82   4 2.82
                             7 2.82   7 2.82   1 2.82   1 2.82
  11  0.500  0.500  0.500-  22 1.88  27 1.88  15 1.88  16 1.88  33 1.88  34 1.88   5 2.82   5 2.82
                             8 2.82   8 2.82   2 2.82   2 2.82
  12  0.833  0.667  0.833-  23 1.88  17 1.88  35 1.88  24 1.88  30 1.88  36 1.88   6 2.82   6 2.82
                             9 2.82   9 2.82   3 2.82   3 2.82
  13  0.333  0.167  0.097-   7 1.88   4 1.88   1 1.88
  14  0.000  0.000  0.237-   4 1.88   1 1.88  10 1.88
  15  0.167  0.333  0.430-   5 1.88   2 1.88  11 1.88
  16  0.333  0.167  0.570-   8 1.88   2 1.88  11 1.88
  17  0.000  0.000  0.763-   9 1.88   3 1.88  12 1.88
  18  0.167  0.333  0.903-   9 1.88   6 1.88   3 1.88
  19  0.333  0.667  0.097-  10 1.88   1 1.88   4 1.88
  20  0.000  0.500  0.237-   1 1.88   4 1.88   7 1.88
  21  0.167  0.833  0.430-   2 1.88   5 1.88   8 1.88
  22  0.333  0.667  0.570-  11 1.88   8 1.88   5 1.88
  23  0.000  0.500  0.763-  12 1.88   9 1.88   6 1.88
  24  0.167  0.833  0.903-  12 1.88   3 1.88   6 1.88
  25  0.833  0.167  0.097-   1 1.88  10 1.88   7 1.88
  26  0.500  0.000  0.237-  10 1.88   7 1.88   4 1.88
  27  0.667  0.333  0.430-  11 1.88   8 1.88   5 1.88
  28  0.833  0.167  0.570-   2 1.88   5 1.88   8 1.88
  29  0.500  0.000  0.763-   3 1.88   6 1.88   9 1.88
  30  0.667  0.333  0.903-   3 1.88  12 1.88   9 1.88
  31  0.833  0.667  0.097-   4 1.88   7 1.88  10 1.88
  32  0.500  0.500  0.237-   7 1.88   1 1.88  10 1.88
  33  0.667  0.833  0.430-   8 1.88   2 1.88  11 1.88
  34  0.833  0.667  0.570-   5 1.88   2 1.88  11 1.88
  35  0.500  0.500  0.763-   6 1.88   3 1.88  12 1.88
  36  0.667  0.833  0.903-   6 1.88   9 1.88  12 1.88
 
  LATTYP: Found a hexagonal cell.
 ALAT       =     5.6328865391
 C/A-ratio  =     2.3822645397
  
  Lattice vectors:
  
 A1 = (   5.6328865391,   0.0000000000,   0.0000000000)
 A2 = (  -2.8164432695,   4.8782228395,   0.0000000000)
 A3 = (  -0.0000000000,   0.0000000000,  13.4190258583)


Analysis of symmetry for initial positions (statically):
=====================================================================
 Subroutine PRICEL returns following result:
 
  LATTYP: Found a trigonal (rhomboedric) cell.
 ALAT       =     4.7594037884
 COS(alpha) =     0.8249077536
  
  Lattice vectors:
  
 A1 = (   1.4082216066,   0.8130371562,   4.4730087089)
 A2 = (  -1.4082216207,   0.8130371318,   4.4730085747)
 A3 = (   0.0000000141,  -1.6260742880,   4.4730085747)
 
  12 primitive cells build up your supercell.
 

 Routine SETGRP: Setting up the symmetry group for a 
 hexagonal supercell.


 Subroutine GETGRP returns: Found 12 space group operations
 (whereof 12 operations were pure point group operations)
 out of a pool of 24 trial point group operations.


The static configuration has the point symmetry D_3d.


Analysis of symmetry for dynamics (positions and initial velocities):
=====================================================================
 Subroutine PRICEL returns following result:
 
  LATTYP: Found a trigonal (rhomboedric) cell.
 ALAT       =     4.7594037884
 COS(alpha) =     0.8249077536
  
  Lattice vectors:
  
 A1 = (   1.4082216066,   0.8130371562,   4.4730087089)
 A2 = (  -1.4082216207,   0.8130371318,   4.4730085747)
 A3 = (   0.0000000141,  -1.6260742880,   4.4730085747)
 
  12 primitive cells build up your supercell.
 

 Routine SETGRP: Setting up the symmetry group for a 
 hexagonal supercell.


 Subroutine GETGRP returns: Found 12 space group operations
 (whereof 12 operations were pure point group operations)
 out of a pool of 24 trial point group operations.


The dynamic configuration has the point symmetry D_3d.


Analysis of structural, dynamic, and magnetic symmetry:
=====================================================================
 Subroutine PRICEL returns following result:
 
  LATTYP: Found a trigonal (rhomboedric) cell.
 ALAT       =     4.7594037884
 COS(alpha) =     0.8249077536
  
  Lattice vectors:
  
 A1 = (   1.4082216066,   0.8130371562,   4.4730087089)
 A2 = (  -1.4082216207,   0.8130371318,   4.4730085747)
 A3 = (   0.0000000141,  -1.6260742880,   4.4730085747)
 
  12 primitive cells build up your supercell.
 

 Routine SETGRP: Setting up the symmetry group for a 
 hexagonal supercell.


 Subroutine GETGRP returns: Found 12 space group operations
 (whereof 12 operations were pure point group operations)
 out of a pool of 24 trial point group operations.


The magnetic configuration has the point symmetry D_3d.


 Subroutine INISYM returns: Found 12 space group operations
 (whereof 12 operations are pure point group operations),
 and found    12 'primitive' translations

 
 
 KPOINTS: KPOINTS created by Atomic Simulation Env

Automatic generation of k-mesh.
Space group operators:
 irot       det(A)        alpha          n_x          n_y          n_z        tau_x        tau_y        tau_z
    1     1.000000     0.000001     1.000000     0.000000     0.000000     0.000000     0.000000     0.000000
    2    -1.000000     0.000001     1.000000     0.000000     0.000000     0.000000     0.000000     0.000000
    3     1.000000   120.000000     0.000000     0.000000    -1.000000     0.000000     0.000000     0.000000
    4    -1.000000   120.000000     0.000000     0.000000    -1.000000     0.000000     0.000000     0.000000
    5     1.000000   120.000000     0.000000    -0.000000     1.000000     0.000000     0.000000     0.000000
    6    -1.000000   120.000000     0.000000    -0.000000     1.000000     0.000000     0.000000     0.000000
    7     1.000000   180.000000     1.000000    -0.000000     0.000000     0.000000     0.000000     0.000000
    8    -1.000000   180.000000     1.000000    -0.000000     0.000000     0.000000     0.000000     0.000000
    9     1.000000   180.000000    -0.500000     0.866025    -0.000000     0.000000     0.000000     0.000000
   10    -1.000000   180.000000    -0.500000     0.866025    -0.000000     0.000000     0.000000     0.000000
   11     1.000000   180.000000     0.500000     0.866025     0.000000     0.000000     0.000000     0.000000
   12    -1.000000   180.000000     0.500000     0.866025     0.000000     0.000000     0.000000     0.000000
 
 Subroutine IBZKPT returns following result:
 ===========================================
 
 Found     14 irreducible k-points:
 
 Following reciprocal coordinates:
            Coordinates               Weight
  0.000000  0.000000  0.000000      1.000000
  0.166667  0.000000  0.000000      6.000000
  0.333333  0.000000  0.000000      6.000000
  0.500000  0.000000  0.000000      3.000000
  0.166667  0.166667  0.000000      6.000000
  0.333333  0.166667  0.000000     12.000000
  0.333333  0.333333  0.000000      2.000000
  0.000000  0.000000  0.500000      1.000000
  0.166667  0.000000  0.500000      6.000000
  0.333333  0.000000  0.500000      6.000000
  0.500000  0.000000  0.500000      3.000000
  0.166667  0.166667  0.500000      6.000000
  0.333333  0.166667  0.500000     12.000000
  0.333333  0.333333  0.500000      2.000000
 
 Following cartesian coordinates:
            Coordinates               Weight
  0.000000  0.000000  0.000000      1.000000
  0.029588  0.017083  0.000000      6.000000
  0.059176  0.034165  0.000000      6.000000
  0.088764  0.051248  0.000000      3.000000
  0.029588  0.051248  0.000000      6.000000
  0.059176  0.068331  0.000000     12.000000
  0.059176  0.102496  0.000000      2.000000
  0.000000 -0.000000  0.037261      1.000000
  0.029588  0.017083  0.037261      6.000000
  0.059176  0.034165  0.037261      6.000000
  0.088764  0.051248  0.037261      3.000000
  0.029588  0.051248  0.037261      6.000000
  0.059176  0.068331  0.037261     12.000000
  0.059176  0.102496  0.037261      2.000000
 


--------------------------------------------------------------------------------------------------------




 Dimension of arrays:
   k-points           NKPTS =     14   k-points in BZ     NKDIM =     14   number of bands    NBANDS=    174
   number of dos      NEDOS =    301   number of ions     NIONS =     36
   non local maximal  LDIM  =      6   non local SUM 2l+1 LMDIM =     18
   total plane-waves  NPLWV = 103680
   max r-space proj   IRMAX =   2678   max aug-charges    IRDMAX=  11288
   dimension x,y,z NGX =    36 NGY =   36 NGZ =   80
   dimension x,y,z NGXF=    72 NGYF=   72 NGZF=  160
   support grid    NGXF=    72 NGYF=   72 NGZF=  160
   ions per type =              12  24
 NGX,Y,Z   is equivalent  to a cutoff of  10.62, 10.62,  9.91 a.u.
 NGXF,Y,Z  is equivalent  to a cutoff of  21.25, 21.25, 19.82 a.u.


 I would recommend the setting:
   dimension x,y,z NGX =    34 NGY =   34 NGZ =   80
 SYSTEM =  unknown system                          
 POSCAR =  Co  O                                   

 Startparameter for this run:
   NWRITE =      2    write-flag & timer
   PREC   = normal    normal or accurate (medium, high low for compatibility)
   ISTART =      0    job   : 0-new  1-cont  2-samecut
   ICHARG =      2    charge: 1-file 2-atom 10-const
   ISPIN  =      2    spin polarized calculation?
   LNONCOLLINEAR =      F non collinear calculations
   LSORBIT =      F    spin-orbit coupling
   INIWAV =      1    electr: 0-lowe 1-rand  2-diag
   LASPH  =      F    aspherical Exc in radial PAW
   METAGGA=      F    non-selfconsistent MetaGGA calc.

 Electronic Relaxation 1
   ENCUT  =  600.0 eV  44.10 Ry    6.64 a.u.  11.25 11.25 26.80*2*pi/ulx,y,z
   ENINI  =  600.0     initial cutoff
   ENAUG  =  605.4 eV  augmentation charge cutoff
   NELM   =    500;   NELMIN=  2; NELMDL=  0     # of ELM steps 
   EDIFF  = 0.1E-05   stopping-criterion for ELM
   LREAL  =      T    real-space projection
   NLSPLINE    = F    spline interpolate recip. space projectors
   LCOMPAT=      F    compatible to vasp.4.4
   GGA_COMPAT  = T    GGA compatible to vasp.4.4-vasp.4.6
   LMAXPAW     = -100 max onsite density
   LMAXMIX     =    4 max onsite mixed and CHGCAR
   VOSKOWN=      0    Vosko Wilk Nusair interpolation
   ROPT   =   -0.00050  -0.00050
 Ionic relaxation
   EDIFFG = -.1E-01   stopping-criterion for IOM
   NSW    =    500    number of steps for IOM
   NBLOCK =      1;   KBLOCK =    500    inner block; outer block 
   IBRION =      2    ionic relax: 0-MD 1-quasi-New 2-CG
   NFREE  =      1    steps in history (QN), initial steepest desc. (CG)
   ISIF   =      3    stress and relaxation
   IWAVPR =     11    prediction:  0-non 1-charg 2-wave 3-comb
   ISYM   =      2    0-nonsym 1-usesym 2-fastsym
   LCORR  =      T    Harris-Foulkes like correction to forces

   POTIM  = 0.5000    time-step for ionic-motion
   TEIN   =    0.0    initial temperature
   TEBEG  =    0.0;   TEEND  =   0.0 temperature during run
   SMASS  =  -3.00    Nose mass-parameter (am)
   estimated Nose-frequenzy (Omega)   =  0.10E-29 period in steps =****** mass=  -0.725E-27a.u.
   SCALEE = 1.0000    scale energy and forces
   NPACO  =    256;   APACO  = 16.0  distance and # of slots for P.C.
   PSTRESS=    0.0 pullay stress

  Mass of Ions in am
   POMASS =  58.93 16.00
  Ionic Valenz
   ZVAL   =   9.00  6.00
  Atomic Wigner-Seitz radii
   RWIGS  =  -1.00 -1.00
  virtual crystal weights 
   VCA    =   1.00  1.00
   NELECT =     252.0000    total number of electrons
   NUPDOWN=      -1.0000    fix difference up-down

 DOS related values:
   EMIN   =  10.00;   EMAX   =-10.00  energy-range for DOS
   EFERMI =   0.00
   ISMEAR =     0;   SIGMA  =   0.03  broadening in eV -4-tet -1-fermi 0-gaus

 Electronic relaxation 2 (details)
   IALGO  =     48    algorithm
   LDIAG  =      T    sub-space diagonalisation (order eigenvalues)
   LSUBROT=      F    optimize rotation matrix (better conditioning)
   TURBO    =      0    0=normal 1=particle mesh
   IRESTART =      0    0=no restart 2=restart with 2 vectors
   NREBOOT  =      0    no. of reboots
   NMIN     =      0    reboot dimension
   EREF     =   0.00    reference energy to select bands
   IMIX   =      4    mixing-type and parameters
     AMIX     =   0.40;   BMIX     =  1.00
     AMIX_MAG =   1.60;   BMIX_MAG =  1.00
     AMIN     =   0.10
     WC   =   100.;   INIMIX=   1;  MIXPRE=   1;  MAXMIX= -45

 Intra band minimization:
   WEIMIN = 0.0010     energy-eigenvalue tresh-hold
   EBREAK =  0.14E-08  absolut break condition
   DEPER  =   0.30     relativ break condition  

   TIME   =   0.40     timestep for ELM

  volume/ion in A,a.u.               =      10.24        69.12
  Fermi-wavevector in a.u.,A,eV,Ry     =   1.442017  2.725018 28.292143  2.079414
  Thomas-Fermi vector in A             =   2.560585
 
 Write flags
   LWAVE  =      F    write WAVECAR
   LCHARG =      F    write CHGCAR
   LVTOT  =      F    write LOCPOT, total local potential
   LVHAR  =      F    write LOCPOT, Hartree potential only
   LELF   =      F    write electronic localiz. function (ELF)
   LORBIT =      0    0 simple, 1 ext, 2 COOP (PROOUT)


 Dipole corrections
   LMONO  =      F    monopole corrections only (constant potential shift)
   LDIPOL =      F    correct potential (dipole corrections)
   IDIPOL =      0    1-x, 2-y, 3-z, 4-all directions 
   EPSILON=  1.0000000 bulk dielectric constant

 LDA+U is selected, type is set to LDAUTYPE =  2
   angular momentum for each species LDAUL =     2   -1
   U (eV)           for each species LDAUU =   3.3  0.0
   J (eV)           for each species LDAUJ =   0.0  0.0
 Exchange correlation treatment:
   GGA     =    PE    GGA type
   LEXCH   =     8    internal setting for exchange type
   VOSKOWN=      0    Vosko Wilk Nusair interpolation
   LHFCALC =     F    Hartree Fock is set to
   LHFONE  =     F    Hartree Fock one center treatment
   AEXX    =    0.0000 exact exchange contribution

 Linear response parameters
   LEPSILON=     F    determine dielectric tensor
   LRPA    =     F    only Hartree local field effects (RPA)
   LNABLA  =     F    use nabla operator in PAW spheres
   LVEL    =     F    velocity operator in full k-point grid
   LINTERFAST=   F  fast interpolation
   KINTER  =     0    interpolate to denser k-point grid
   CSHIFT  =0.1000    complex shift for real part using Kramers Kronig
   OMEGAMAX=  -1.0    maximum frequency
   DEG_THRESHOLD= 0.2000000E-02 threshold for treating states as degnerate
   RTIME   =    0.100 relaxation time in fs

 Orbital magnetization related:
   ORBITALMAG=     F  switch on orbital magnetization
   LCHIMAG   =     F  perturbation theory with respect to B field
   DQ        =  0.001000  dq finite difference perturbation B field



--------------------------------------------------------------------------------------------------------


 conjugate gradient relaxation of ions
 charge density and potential will be updated during run
 spin polarized calculation
 RMM-DIIS sequential band-by-band
 perform sub-space diagonalisation
    before iterative eigenvector-optimisation
 modified Broyden-mixing scheme, WC =      100.0
 initial mixing is a Kerker type mixing with AMIX =  0.4000 and BMIX =      1.0000
 Hartree-type preconditioning will be used
 using additional bands           48
 real space projection scheme for non local part
 use partial core corrections
 calculate Harris-corrections to forces 
   (improved forces if not selfconsistent)
 use gradient corrections 
 use of overlap-Matrix (Vanderbilt PP)
 Gauss-broadening in eV      SIGMA  =   0.03


--------------------------------------------------------------------------------------------------------


  energy-cutoff  :      600.00
  volume of cell :      368.73
      direct lattice vectors                 reciprocal lattice vectors
     5.632886539  0.000000000  0.000000000     0.177528873  0.102496343  0.000000000
    -2.816443270  4.878222839  0.000000000    -0.000000000  0.204992685 -0.000000000
    -0.000000000  0.000000000 13.419025858     0.000000000 -0.000000000  0.074521058

  length of vectors
     5.632886539  5.632886539 13.419025858     0.204992685  0.204992685  0.074521058


 
 k-points in units of 2pi/SCALE and weight: KPOINTS created by Atomic Simulation Env
   0.00000000  0.00000000  0.00000000       0.014
   0.02958815  0.01708272  0.00000000       0.083
   0.05917629  0.03416545  0.00000000       0.083
   0.08876444  0.05124817  0.00000000       0.042
   0.02958815  0.05124817  0.00000000       0.083
   0.05917629  0.06833090  0.00000000       0.167
   0.05917629  0.10249634  0.00000000       0.028
   0.00000000 -0.00000000  0.03726053       0.014
   0.02958815  0.01708272  0.03726053       0.083
   0.05917629  0.03416545  0.03726053       0.083
   0.08876444  0.05124817  0.03726053       0.042
   0.02958815  0.05124817  0.03726053       0.083
   0.05917629  0.06833090  0.03726053       0.167
   0.05917629  0.10249634  0.03726053       0.028
 
 k-points in reciprocal lattice and weights: KPOINTS created by Atomic Simulation Env
   0.00000000  0.00000000  0.00000000       0.014
   0.16666667  0.00000000  0.00000000       0.083
   0.33333333  0.00000000  0.00000000       0.083
   0.50000000  0.00000000  0.00000000       0.042
   0.16666667  0.16666667  0.00000000       0.083
   0.33333333  0.16666667  0.00000000       0.167
   0.33333333  0.33333333  0.00000000       0.028
   0.00000000  0.00000000  0.50000000       0.014
   0.16666667  0.00000000  0.50000000       0.083
   0.33333333  0.00000000  0.50000000       0.083
   0.50000000  0.00000000  0.50000000       0.042
   0.16666667  0.16666667  0.50000000       0.083
   0.33333333  0.16666667  0.50000000       0.167
   0.33333333  0.33333333  0.50000000       0.028
 
 position of ions in fractional coordinates (direct lattice) 
   0.16666667  0.33333333  0.16666667
   0.00000000  0.00000000  0.50000000
   0.33333333  0.16666667  0.83333333
   0.16666667  0.83333333  0.16666667
   0.00000000  0.50000000  0.50000000
   0.33333333  0.66666667  0.83333333
   0.66666667  0.33333333  0.16666667
   0.50000000  0.00000000  0.50000000
   0.83333333  0.16666667  0.83333333
   0.66666667  0.83333333  0.16666667
   0.50000000  0.50000000  0.50000000
   0.83333333  0.66666667  0.83333333
   0.33333333  0.16666667  0.09651177
   0.00000000  0.00000000  0.23682156
   0.16666667  0.33333333  0.42984511
   0.33333333  0.16666667  0.57015489
   0.00000000  0.00000000  0.76317844
   0.16666667  0.33333333  0.90348823
   0.33333333  0.66666667  0.09651177
   0.00000000  0.50000000  0.23682156
   0.16666667  0.83333333  0.42984511
   0.33333333  0.66666667  0.57015489
   0.00000000  0.50000000  0.76317844
   0.16666667  0.83333333  0.90348823
   0.83333333  0.16666667  0.09651177
   0.50000000  0.00000000  0.23682156
   0.66666667  0.33333333  0.42984511
   0.83333333  0.16666667  0.57015489
   0.50000000  0.00000000  0.76317844
   0.66666667  0.33333333  0.90348823
   0.83333333  0.66666667  0.09651177
   0.50000000  0.50000000  0.23682156
   0.66666667  0.83333333  0.42984511
   0.83333333  0.66666667  0.57015489
   0.50000000  0.50000000  0.76317844
   0.66666667  0.83333333  0.90348823
 
 position of ions in cartesian coordinates  (Angst):
  -0.00000001  1.62607429  2.23650435
  -0.00000000  0.00000000  6.70951293
   1.40822165  0.81303713 11.18252150
  -1.40822165  4.06518571  2.23650435
  -1.40822163  2.43911142  6.70951293
   0.00000001  3.25214855 11.18252150
   2.81644326  1.62607429  2.23650435
   2.81644327  0.00000000  6.70951293
   4.22466492  0.81303713 11.18252150
   1.40822162  4.06518571  2.23650435
   1.40822163  2.43911142  6.70951293
   2.81644328  3.25214855 11.18252150
   1.40822165  0.81303713  1.29509395
  -0.00000000  0.00000000  3.17791463
  -0.00000001  1.62607429  5.76810265
   1.40822165  0.81303713  7.65092320
  -0.00000000  0.00000000 10.24111123
  -0.00000001  1.62607429 12.12393191
   0.00000001  3.25214855  1.29509395
  -1.40822163  2.43911142  3.17791463
  -1.40822165  4.06518571  5.76810265
   0.00000001  3.25214855  7.65092320
  -1.40822163  2.43911142 10.24111123
  -1.40822165  4.06518571 12.12393191
   4.22466492  0.81303713  1.29509395
   2.81644327  0.00000000  3.17791463
   2.81644326  1.62607429  5.76810265
   4.22466492  0.81303713  7.65092320
   2.81644327  0.00000000 10.24111123
   2.81644326  1.62607429 12.12393191
   2.81644328  3.25214855  1.29509395
   1.40822163  2.43911142  3.17791463
   1.40822162  4.06518571  5.76810265
   2.81644328  3.25214855  7.65092320
   1.40822163  2.43911142 10.24111123
   1.40822162  4.06518571 12.12393191
 


--------------------------------------------------------------------------------------------------------


 k-point  1 :   0.0000 0.0000 0.0000  plane waves:   12269
 k-point  2 :   0.1667 0.0000 0.0000  plane waves:   12313
 k-point  3 :   0.3333 0.0000 0.0000  plane waves:   12306
 k-point  4 :   0.5000 0.0000 0.0000  plane waves:   12292
 k-point  5 :   0.1667 0.1667 0.0000  plane waves:   12305
 k-point  6 :   0.3333 0.1667 0.0000  plane waves:   12312
 k-point  7 :   0.3333 0.3333 0.0000  plane waves:   12321
 k-point  8 :   0.0000 0.0000 0.5000  plane waves:   12378
 k-point  9 :   0.1667 0.0000 0.5000  plane waves:   12314
 k-point 10 :   0.3333 0.0000 0.5000  plane waves:   12310
 k-point 11 :   0.5000 0.0000 0.5000  plane waves:   12296
 k-point 12 :   0.1667 0.1667 0.5000  plane waves:   12280
 k-point 13 :   0.3333 0.1667 0.5000  plane waves:   12314
 k-point 14 :   0.3333 0.3333 0.5000  plane waves:   12330

 maximum and minimum number of plane-waves per node :      1571     1514

 maximum number of plane-waves:     12378
 maximum index in each direction: 
   IXMAX=   11   IYMAX=   11   IZMAX=   26
   IXMIN=  -11   IYMIN=  -11   IZMIN=  -27

 WARNING: aliasing errors must be expected set NGX to  46 to avoid them
 WARNING: aliasing errors must be expected set NGY to  46 to avoid them
 WARNING: aliasing errors must be expected set NGZ to 108 to avoid them
 aliasing errors are usually negligible using standard VASP settings
 and one can safely disregard these warnings

 real space projection operators:
  total allocation   :       6785.94 KBytes
  max/ min on nodes  :        942.78        744.69


 parallel 3D FFT for wavefunctions:
    minimum data exchange during FFTs selected (reduces bandwidth)
 parallel 3D FFT for charge:
    minimum data exchange during FFTs selected (reduces bandwidth)


 total amount of memory used by VASP on root node    58043. kBytes
========================================================================

   base      :      30000. kBytes
   nonlr-proj:       2801. kBytes
   fftplans  :       1177. kBytes
   grid      :       3019. kBytes
   one-center:        155. kBytes
   wavefun   :      20891. kBytes
 
     INWAV:  cpu time    0.0000: real time    0.0000
 Broyden mixing: mesh for mixing (old mesh)
   NGX = 23   NGY = 23   NGZ = 53
  (NGX  = 72   NGY  = 72   NGZ  =160)
  gives a total of  28037 points

 initial charge density was supplied:
 charge density of overlapping atoms calculated
 number of electron     252.0000000 magnetization      36.0000000
 keeping initial charge density in first step


--------------------------------------------------------------------------------------------------------


 Maximum index for non-local projection operator          439
 Maximum index for augmentation-charges          527 (set IRDMAX)


--------------------------------------------------------------------------------------------------------


 First call to EWALD:  gamma=   0.247
 Maximum number of real-space cells 4x 4x 2
 Maximum number of reciprocal cells 2x 2x 5

 FEWALD executed in parallel
    FEWALD:  cpu time    0.0019: real time    0.0019


----------------------------------------- Iteration    1(   1)  ---------------------------------------


    POTLOK:  cpu time    0.0265: real time    0.0270
    SETDIJ:  cpu time    0.0062: real time    0.0062
    EDDIAG:  cpu time    1.0184: real time    1.0285
  RMM-DIIS:  cpu time    0.9481: real time    0.9555
    ORTHCH:  cpu time    0.2371: real time    0.2386
       DOS:  cpu time    0.0029: real time    0.0030
    --------------------------------------------
      LOOP:  cpu time    2.2414: real time    2.2925

 eigenvalue-minimisations  :  4872
 total energy-change (2. order) : 0.2568897E+04  (-0.1177657E+05)
 number of electron     252.0000000 magnetization      36.0000000
 augmentation part      252.0000000 magnetization      36.0000000

 Free energy of the ion-electron system (eV)
  ---------------------------------------------------
  alpha Z        PSCENC =       765.83023115
  Ewald energy   TEWEN  =    -14247.71842038
  -Hartree energ DENC   =     -6537.20158392
  -exchange      EXHF   =         0.00000000
  -V(xc)+E(xc)   XCENC  =       865.83771297
  PAW double counting   =     16964.53395965   -17533.53971429
  entropy T*S    EENTRO =        -0.01011911
  eigenvalues    EBANDS =      2154.09491857
  atomic energy  EATOM  =     20137.07035884
  Solvation  Ediel_sol  =         0.00000000
  ---------------------------------------------------
  free energy    TOTEN  =      2568.89734349 eV

  energy without entropy =     2568.90746260  energy(sigma->0) =     2568.90240305


--------------------------------------------------------------------------------------------------------




----------------------------------------- Iteration    1(   2)  ---------------------------------------


    EDDIAG:  cpu time    0.9778: real time    0.9850
  RMM-DIIS:  cpu time    0.9500: real time    0.9571
    ORTHCH:  cpu time    0.2393: real time    0.2416
       DOS:  cpu time    0.0028: real time    0.0029
    --------------------------------------------
      LOOP:  cpu time    2.1712: real time    2.1971

 eigenvalue-minimisations  :  4872
 total energy-change (2. order) :-0.1914396E+04  (-0.2270552E+04)
 number of electron     252.0000000 magnetization      36.0000000
 augmentation part      252.0000000 magnetization      36.0000000

 Free energy of the ion-electron system (eV)
  ---------------------------------------------------
  alpha Z        PSCENC =       765.83023115
  Ewald energy   TEWEN  =    -14247.71842038
  -Hartree energ DENC   =     -6537.20158392
  -exchange      EXHF   =         0.00000000
  -V(xc)+E(xc)   XCENC  =       865.83771297
  PAW double counting   =     16964.53395965   -17533.53971429
  entropy T*S    EENTRO =        -0.00443775
  eigenvalues    EBANDS =       239.69336687
  atomic energy  EATOM  =     20137.07035884
  Solvation  Ediel_sol  =         0.00000000
  ---------------------------------------------------
  free energy    TOTEN  =       654.50147315 eV

  energy without entropy =      654.50591089  energy(sigma->0) =      654.50369202


--------------------------------------------------------------------------------------------------------




----------------------------------------- Iteration    1(   3)  ---------------------------------------


    EDDIAG:  cpu time    0.9636: real time    0.9708
  RMM-DIIS:  cpu time    0.9443: real time    0.9533
    ORTHCH:  cpu time    0.2361: real time    0.2376
       DOS:  cpu time    0.0029: real time    0.0029
    --------------------------------------------
      LOOP:  cpu time    2.1483: real time    2.1755

 eigenvalue-minimisations  :  4872
 total energy-change (2. order) :-0.5614377E+03  (-0.5360665E+03)
 number of electron     252.0000000 magnetization      36.0000000
 augmentation part      252.0000000 magnetization      36.0000000

 Free energy of the ion-electron system (eV)
  ---------------------------------------------------
  alpha Z        PSCENC =       765.83023115
  Ewald energy   TEWEN  =    -14247.71842038
  -Hartree energ DENC   =     -6537.20158392
  -exchange      EXHF   =         0.00000000
  -V(xc)+E(xc)   XCENC  =       865.83771297
  PAW double counting   =     16964.53395965   -17533.53971429
  entropy T*S    EENTRO =        -0.01490557
  eigenvalues    EBANDS =      -321.73383558
  atomic energy  EATOM  =     20137.07035884
  Solvation  Ediel_sol  =         0.00000000
  ---------------------------------------------------
  free energy    TOTEN  =        93.06380288 eV

  energy without entropy =       93.07870845  energy(sigma->0) =       93.07125566


--------------------------------------------------------------------------------------------------------




----------------------------------------- Iteration    1(   4)  ---------------------------------------


    EDDIAG:  cpu time    0.9882: real time    0.9959
  RMM-DIIS:  cpu time    0.9563: real time    0.9652
    ORTHCH:  cpu time    0.2495: real time    0.2511
       DOS:  cpu time    0.0033: real time    0.0033
    --------------------------------------------
      LOOP:  cpu time    2.1985: real time    2.2264

 eigenvalue-minimisations  :  4872
 total energy-change (2. order) :-0.2096966E+03  (-0.1664185E+03)
 number of electron     252.0000000 magnetization      36.0000000
 augmentation part      252.0000000 magnetization      36.0000000

 Free energy of the ion-electron system (eV)
  ---------------------------------------------------
  alpha Z        PSCENC =       765.83023115
  Ewald energy   TEWEN  =    -14247.71842038
  -Hartree energ DENC   =     -6537.20158392
  -exchange      EXHF   =         0.00000000
  -V(xc)+E(xc)   XCENC  =       865.83771297
  PAW double counting   =     16964.53395965   -17533.53971429
  entropy T*S    EENTRO =        -0.01984172
  eigenvalues    EBANDS =      -531.42548544
  atomic energy  EATOM  =     20137.07035884
  Solvation  Ediel_sol  =         0.00000000
  ---------------------------------------------------
  free energy    TOTEN  =      -116.63278314 eV

  energy without entropy =     -116.61294142  energy(sigma->0) =     -116.62286228


--------------------------------------------------------------------------------------------------------




----------------------------------------- Iteration    1(   5)  ---------------------------------------


    EDDIAG:  cpu time    1.0192: real time    1.0271
  RMM-DIIS:  cpu time    0.9786: real time    0.9884
    ORTHCH:  cpu time    0.2438: real time    0.2454
       DOS:  cpu time    0.0032: real time    0.0032
    --------------------------------------------
      LOOP:  cpu time    2.2463: real time    2.2754

 eigenvalue-minimisations  :  4872
 total energy-change (2. order) :-0.1086657E+03  (-0.6536390E+02)
 number of electron     252.0000000 magnetization      36.0000000
 augmentation part      252.0000000 magnetization      36.0000000

 Free energy of the ion-electron system (eV)
  ---------------------------------------------------
  alpha Z        PSCENC =       765.83023115
  Ewald energy   TEWEN  =    -14247.71842038
  -Hartree energ DENC   =     -6537.20158392
  -exchange      EXHF   =         0.00000000
  -V(xc)+E(xc)   XCENC  =       865.83771297
  PAW double counting   =     16964.53395965   -17533.53971429
  entropy T*S    EENTRO =        -0.04320524
  eigenvalues    EBANDS =      -640.06779437
  atomic energy  EATOM  =     20137.07035884
  Solvation  Ediel_sol  =         0.00000000
  ---------------------------------------------------
  free energy    TOTEN  =      -225.29845559 eV

  energy without entropy =     -225.25525035  energy(sigma->0) =     -225.27685297


--------------------------------------------------------------------------------------------------------




----------------------------------------- Iteration    1(   6)  ---------------------------------------


    EDDIAG:  cpu time    0.9976: real time    1.0054
  RMM-DIIS:  cpu time    0.9459: real time    0.9524
    ORTHCH:  cpu time    0.2429: real time    0.2446
       DOS:  cpu time    0.0030: real time    0.0030
    --------------------------------------------
      LOOP:  cpu time    2.1909: real time    2.2163

 eigenvalue-minimisations  :  4872
 total energy-change (2. order) :-0.2797672E+02  (-0.1773964E+02)
 number of electron     252.0000000 magnetization      36.0000000
 augmentation part      252.0000000 magnetization      36.0000000

 Free energy of the ion-electron system (eV)
  ---------------------------------------------------
  alpha Z        PSCENC =       765.83023115
  Ewald energy   TEWEN  =    -14247.71842038
  -Hartree energ DENC   =     -6537.20158392
  -exchange      EXHF   =         0.00000000
  -V(xc)+E(xc)   XCENC  =       865.83771297
  PAW double counting   =     16964.53395965   -17533.53971429
  entropy T*S    EENTRO =        -0.04643757
  eigenvalues    EBANDS =      -668.04128653
  atomic energy  EATOM  =     20137.07035884
  Solvation  Ediel_sol  =         0.00000000
  ---------------------------------------------------
  free energy    TOTEN  =      -253.27518007 eV

  energy without entropy =     -253.22874250  energy(sigma->0) =     -253.25196129


--------------------------------------------------------------------------------------------------------




----------------------------------------- Iteration    1(   7)  ---------------------------------------


    EDDIAG:  cpu time    0.9768: real time    0.9837
  RMM-DIIS:  cpu time    0.9539: real time    0.9626
    ORTHCH:  cpu time    0.2466: real time    0.2482
       DOS:  cpu time    0.0031: real time    0.0031
    --------------------------------------------
      LOOP:  cpu time    2.1816: real time    2.2090

 eigenvalue-minimisations  :  4872
 total energy-change (2. order) :-0.9038860E+01  (-0.6694770E+01)
 number of electron     252.0000000 magnetization      36.0000000
 augmentation part      252.0000000 magnetization      36.0000000

 Free energy of the ion-electron system (eV)
  ---------------------------------------------------
  alpha Z        PSCENC =       765.83023115
  Ewald energy   TEWEN  =    -14247.71842038
  -Hartree energ DENC   =     -6537.20158392
  -exchange      EXHF   =         0.00000000
  -V(xc)+E(xc)   XCENC  =       865.83771297
  PAW double counting   =     16964.53395965   -17533.53971429
  entropy T*S    EENTRO =        -0.04780730
  eigenvalues    EBANDS =      -677.07877650
  atomic energy  EATOM  =     20137.07035884
  Solvation  Ediel_sol  =         0.00000000
  ---------------------------------------------------
  free energy    TOTEN  =      -262.31403978 eV

  energy without entropy =     -262.26623248  energy(sigma->0) =     -262.29013613


--------------------------------------------------------------------------------------------------------




----------------------------------------- Iteration    1(   8)  ---------------------------------------


    EDDIAG:  cpu time    0.9831: real time    0.9905
  RMM-DIIS:  cpu time    0.9490: real time    0.9570
    ORTHCH:  cpu time    0.2495: real time    0.2511
       DOS:  cpu time    0.0030: real time    0.0030
    --------------------------------------------
      LOOP:  cpu time    2.1858: real time    2.2111

 eigenvalue-minimisations  :  4872
 total energy-change (2. order) :-0.2136084E+01  (-0.1487210E+01)
 number of electron     252.0000000 magnetization      36.0000000
 augmentation part      252.0000000 magnetization      36.0000000

 Free energy of the ion-electron system (eV)
  ---------------------------------------------------
  alpha Z        PSCENC =       765.83023115
  Ewald energy   TEWEN  =    -14247.71842038
  -Hartree energ DENC   =     -6537.20158392
  -exchange      EXHF   =         0.00000000
  -V(xc)+E(xc)   XCENC  =       865.83771297
  PAW double counting   =     16964.53395965   -17533.53971429
  entropy T*S    EENTRO =        -0.04787166
  eigenvalues    EBANDS =      -679.21479609
  atomic energy  EATOM  =     20137.07035884
  Solvation  Ediel_sol  =         0.00000000
  ---------------------------------------------------
  free energy    TOTEN  =      -264.45012373 eV

  energy without entropy =     -264.40225207  energy(sigma->0) =     -264.42618790


--------------------------------------------------------------------------------------------------------




----------------------------------------- Iteration    1(   9)  ---------------------------------------


    EDDIAG:  cpu time    0.9777: real time    0.9857
  RMM-DIIS:  cpu time    2.3411: real time    2.3606
    ORTHCH:  cpu time    0.2390: real time    0.2405
       DOS:  cpu time    0.0030: real time    0.0030
    --------------------------------------------
      LOOP:  cpu time    3.5620: real time    3.6009

 eigenvalue-minimisations  : 12956
 total energy-change (2. order) :-0.1084279E+01  (-0.9250926E+00)
 number of electron     252.0000000 magnetization      36.0000000
 augmentation part      252.0000000 magnetization      36.0000000

 Free energy of the ion-electron system (eV)
  ---------------------------------------------------
  alpha Z        PSCENC =       765.83023115
  Ewald energy   TEWEN  =    -14247.71842038
  -Hartree energ DENC   =     -6537.20158392
  -exchange      EXHF   =         0.00000000
  -V(xc)+E(xc)   XCENC  =       865.83771297
  PAW double counting   =     16964.53395965   -17533.53971429
  entropy T*S    EENTRO =        -0.04830545
  eigenvalues    EBANDS =      -680.29864111
  atomic energy  EATOM  =     20137.07035884
  Solvation  Ediel_sol  =         0.00000000
  ---------------------------------------------------
  free energy    TOTEN  =      -265.53440253 eV

  energy without entropy =     -265.48609708  energy(sigma->0) =     -265.51024980


--------------------------------------------------------------------------------------------------------




----------------------------------------- Iteration    1(  10)  ---------------------------------------


    EDDIAG:  cpu time    0.9786: real time    0.9858
  RMM-DIIS:  cpu time    2.4336: real time    2.4544
    ORTHCH:  cpu time    0.2389: real time    0.2403
       DOS:  cpu time    0.0031: real time    0.0031
    --------------------------------------------
      LOOP:  cpu time    3.6554: real time    3.6957

 eigenvalue-minimisations  : 13511
 total energy-change (2. order) : 0.1197190E-01  (-0.1946000E-01)
 number of electron     252.0000000 magnetization      36.0000000
 augmentation part      252.0000000 magnetization      36.0000000

 Free energy of the ion-electron system (eV)
  ---------------------------------------------------
  alpha Z        PSCENC =       765.83023115
  Ewald energy   TEWEN  =    -14247.71842038
  -Hartree energ DENC   =     -6537.20158392
  -exchange      EXHF   =         0.00000000
  -V(xc)+E(xc)   XCENC  =       865.83771297
  PAW double counting   =     16964.53395965   -17533.53971429
  entropy T*S    EENTRO =        -0.04818307
  eigenvalues    EBANDS =      -680.28679159
  atomic energy  EATOM  =     20137.07035884
  Solvation  Ediel_sol  =         0.00000000
  ---------------------------------------------------
  free energy    TOTEN  =      -265.52243063 eV

  energy without entropy =     -265.47424756  energy(sigma->0) =     -265.49833910


--------------------------------------------------------------------------------------------------------




----------------------------------------- Iteration    1(  11)  ---------------------------------------


    EDDIAG:  cpu time    1.0013: real time    1.0085
  RMM-DIIS:  cpu time    2.4758: real time    2.4975
    ORTHCH:  cpu time    0.2432: real time    0.2446
       DOS:  cpu time    0.0029: real time    0.0029
    --------------------------------------------
      LOOP:  cpu time    3.7244: real time    3.7632

 eigenvalue-minimisations  : 13710
 total energy-change (2. order) :-0.3057671E-03  (-0.1209240E-02)
 number of electron     252.0000000 magnetization      36.0000000
 augmentation part      252.0000000 magnetization      36.0000000

 Free energy of the ion-electron system (eV)
  ---------------------------------------------------
  alpha Z        PSCENC =       765.83023115
  Ewald energy   TEWEN  =    -14247.71842038
  -Hartree energ DENC   =     -6537.20158392
  -exchange      EXHF   =         0.00000000
  -V(xc)+E(xc)   XCENC  =       865.83771297
  PAW double counting   =     16964.53395965   -17533.53971429
  entropy T*S    EENTRO =        -0.04818416
  eigenvalues    EBANDS =      -680.28709626
  atomic energy  EATOM  =     20137.07035884
  Solvation  Ediel_sol  =         0.00000000
  ---------------------------------------------------
  free energy    TOTEN  =      -265.52273640 eV

  energy without entropy =     -265.47455224  energy(sigma->0) =     -265.49864432


--------------------------------------------------------------------------------------------------------




----------------------------------------- Iteration    1(  12)  ---------------------------------------


    EDDIAG:  cpu time    0.9664: real time    0.9739
  RMM-DIIS:  cpu time    2.3805: real time    2.3999
    ORTHCH:  cpu time    0.2412: real time    0.2427
       DOS:  cpu time    0.0029: real time    0.0030
    CHARGE:  cpu time    0.1569: real time    0.1577
    MIXING:  cpu time    0.0008: real time    0.0008
    --------------------------------------------
      LOOP:  cpu time    3.7500: real time    3.7881

 eigenvalue-minimisations  : 13231
 total energy-change (2. order) :-0.1187792E-03  (-0.1246116E-03)
 number of electron     251.9999807 magnetization      29.0950564
 augmentation part       65.2215308 magnetization      25.9459926

 Broyden mixing:
  rms(total) = 0.98992E+01    rms(broyden)= 0.98990E+01
  rms(prec ) = 0.10891E+02
  weight for this iteration     100.00

 Free energy of the ion-electron system (eV)
  ---------------------------------------------------
  alpha Z        PSCENC =       765.83023115
  Ewald energy   TEWEN  =    -14247.71842038
  -Hartree energ DENC   =     -6537.20158392
  -exchange      EXHF   =         0.00000000
  -V(xc)+E(xc)   XCENC  =       865.83771297
  PAW double counting   =     16964.53395965   -17533.53971429
  entropy T*S    EENTRO =        -0.04818413
  eigenvalues    EBANDS =      -680.28721508
  atomic energy  EATOM  =     20137.07035884
  Solvation  Ediel_sol  =         0.00000000
  ---------------------------------------------------
  free energy    TOTEN  =      -265.52285518 eV

  energy without entropy =     -265.47467105  energy(sigma->0) =     -265.49876312


--------------------------------------------------------------------------------------------------------




----------------------------------------- Iteration    1(  13)  ---------------------------------------


    POTLOK:  cpu time    0.0242: real time    0.0244
    SETDIJ:  cpu time    0.0062: real time    0.0063
    EDDIAG:  cpu time    0.9724: real time    0.9809
  RMM-DIIS:  cpu time    1.9696: real time    1.9854
    ORTHCH:  cpu time    0.2404: real time    0.2419
       DOS:  cpu time    0.0029: real time    0.0032
    CHARGE:  cpu time    0.1499: real time    0.1508
    MIXING:  cpu time    0.0008: real time    0.0008
    --------------------------------------------
      LOOP:  cpu time    3.3678: real time    3.4031

 eigenvalue-minimisations  : 10931
 total energy-change (2. order) :-0.8061798E+02  (-0.9659295E+02)
 number of electron     251.9999975 magnetization      27.2787193
 augmentation part       97.4313371 magnetization      22.5914657

 Broyden mixing:
  rms(total) = 0.17592E+02    rms(broyden)= 0.17592E+02
  rms(prec ) = 0.18992E+02
  weight for this iteration     100.00

 eigenvalues of (default mixing * dielectric matrix)
  average eigenvalue GAMMA=   0.2489
  0.2489

 Free energy of the ion-electron system (eV)
  ---------------------------------------------------
  alpha Z        PSCENC =       765.83023115
  Ewald energy   TEWEN  =    -14247.71842038
  -Hartree energ DENC   =     -6346.84713844
  -exchange      EXHF   =         0.00000000
  -V(xc)+E(xc)   XCENC  =       889.33157549
  PAW double counting   =     19198.66907805   -19629.27199687
  entropy T*S    EENTRO =        -0.01096860
  eigenvalues    EBANDS =     -1113.19354981
  atomic energy  EATOM  =     20137.07035884
  Solvation  Ediel_sol  =         0.00000000
  ---------------------------------------------------
  free energy    TOTEN  =      -346.14083057 eV

  energy without entropy =     -346.12986197  energy(sigma->0) =     -346.13534627


--------------------------------------------------------------------------------------------------------




----------------------------------------- Iteration    1(  14)  ---------------------------------------


    POTLOK:  cpu time    0.0238: real time    0.0239
    SETDIJ:  cpu time    0.0058: real time    0.0058
    EDDIAG:  cpu time    0.9803: real time    0.9877
  RMM-DIIS:  cpu time    1.7677: real time    1.7860
    ORTHCH:  cpu time    0.2471: real time    0.2487
       DOS:  cpu time    0.0024: real time    0.0024
    CHARGE:  cpu time    0.1588: real time    0.1600
    MIXING:  cpu time    0.0008: real time    0.0008
    --------------------------------------------
      LOOP:  cpu time    3.1883: real time    3.2254

 eigenvalue-minimisations  :  9744
 total energy-change (2. order) : 0.1713737E+03  (-0.1319594E+02)
 number of electron     251.9999907 magnetization      23.8256919
 augmentation part       80.4563886 magnetization      16.7309678

 Broyden mixing:
  rms(total) = 0.41997E+01    rms(broyden)= 0.41995E+01
  rms(prec ) = 0.46414E+01
  weight for this iteration     100.00

 eigenvalues of (default mixing * dielectric matrix)
  average eigenvalue GAMMA=   0.5510
  0.7166  0.3855

 Free energy of the ion-electron system (eV)
  ---------------------------------------------------
  alpha Z        PSCENC =       765.83023115
  Ewald energy   TEWEN  =    -14247.71842038
  -Hartree energ DENC   =     -6466.49866768
  -exchange      EXHF   =         0.00000000
  -V(xc)+E(xc)   XCENC  =       885.50019207
  PAW double counting   =     20131.11097204   -20657.36928606
  entropy T*S    EENTRO =        -0.00950359
  eigenvalues    EBANDS =      -722.68299809
  atomic energy  EATOM  =     20137.07035884
  Solvation  Ediel_sol  =         0.00000000
  ---------------------------------------------------
  free energy    TOTEN  =      -174.76712170 eV

  energy without entropy =     -174.75761811  energy(sigma->0) =     -174.76236990


--------------------------------------------------------------------------------------------------------




----------------------------------------- Iteration    1(  15)  ---------------------------------------


    POTLOK:  cpu time    0.0243: real time    0.0245
    SETDIJ:  cpu time    0.0060: real time    0.0060
    EDDIAG:  cpu time    0.9852: real time    0.9927
  RMM-DIIS:  cpu time    1.7855: real time    1.8017
    ORTHCH:  cpu time    0.2452: real time    0.2468
       DOS:  cpu time    0.0029: real time    0.0029
    CHARGE:  cpu time    0.1541: real time    0.1550
    MIXING:  cpu time    0.0008: real time    0.0008
    --------------------------------------------
      LOOP:  cpu time    3.2056: real time    3.2412

 eigenvalue-minimisations  :  9916
 total energy-change (2. order) :-0.1462047E+02  (-0.4784457E+01)
 number of electron     251.9999872 magnetization      20.0123703
 augmentation part       73.2259975 magnetization      15.4787158

 Broyden mixing:
  rms(total) = 0.23277E+01    rms(broyden)= 0.23270E+01
  rms(prec ) = 0.24579E+01
  weight for this iteration     100.00

 eigenvalues of (default mixing * dielectric matrix)
  average eigenvalue GAMMA=   0.6434
  1.1174  0.4064  0.4064

 Free energy of the ion-electron system (eV)
  ---------------------------------------------------
  alpha Z        PSCENC =       765.83023115
  Ewald energy   TEWEN  =    -14247.71842038
  -Hartree energ DENC   =     -6495.69417468
  -exchange      EXHF   =         0.00000000
  -V(xc)+E(xc)   XCENC  =       872.07218840
  PAW double counting   =     21119.46405395   -21674.28656825
  entropy T*S    EENTRO =        -0.01276279
  eigenvalues    EBANDS =      -666.11250182
  atomic energy  EATOM  =     20137.07035884
  Solvation  Ediel_sol  =         0.00000000
  ---------------------------------------------------
  free energy    TOTEN  =      -189.38759557 eV

  energy without entropy =     -189.37483279  energy(sigma->0) =     -189.38121418


--------------------------------------------------------------------------------------------------------




----------------------------------------- Iteration    1(  16)  ---------------------------------------


    POTLOK:  cpu time    0.0242: real time    0.0243
    SETDIJ:  cpu time    0.0059: real time    0.0059
    EDDIAG:  cpu time    0.9938: real time    1.0024
  RMM-DIIS:  cpu time    1.7576: real time    1.7731
    ORTHCH:  cpu time    0.2413: real time    0.2429
       DOS:  cpu time    0.0030: real time    0.0030
    CHARGE:  cpu time    0.1515: real time    0.1524
    MIXING:  cpu time    0.0008: real time    0.0008
    --------------------------------------------
      LOOP:  cpu time    3.1797: real time    3.2155

 eigenvalue-minimisations  :  9744
 total energy-change (2. order) :-0.3912226E+01  (-0.4082096E+00)
 number of electron     251.9999878 magnetization      15.4792135
 augmentation part       74.4342303 magnetization      11.5145765

 Broyden mixing:
  rms(total) = 0.12910E+01    rms(broyden)= 0.12909E+01
  rms(prec ) = 0.13281E+01
  weight for this iteration     100.00

 eigenvalues of (default mixing * dielectric matrix)
  average eigenvalue GAMMA=   0.8891
  1.9603  0.6821  0.4570  0.4570

 Free energy of the ion-electron system (eV)
  ---------------------------------------------------
  alpha Z        PSCENC =       765.83023115
  Ewald energy   TEWEN  =    -14247.71842038
  -Hartree energ DENC   =     -6485.02620436
  -exchange      EXHF   =         0.00000000
  -V(xc)+E(xc)   XCENC  =       871.46179073
  PAW double counting   =     22156.67609985   -22712.11215721
  entropy T*S    EENTRO =        -0.01393495
  eigenvalues    EBANDS =      -679.46758569
  atomic energy  EATOM  =     20137.07035884
  Solvation  Ediel_sol  =         0.00000000
  ---------------------------------------------------
  free energy    TOTEN  =      -193.29982201 eV

  energy without entropy =     -193.28588706  energy(sigma->0) =     -193.29285454


--------------------------------------------------------------------------------------------------------




----------------------------------------- Iteration    1(  17)  ---------------------------------------


    POTLOK:  cpu time    0.0244: real time    0.0246
    SETDIJ:  cpu time    0.0059: real time    0.0059
    EDDIAG:  cpu time    0.9798: real time    0.9871
  RMM-DIIS:  cpu time    1.7587: real time    1.7732
    ORTHCH:  cpu time    0.2412: real time    0.2427
       DOS:  cpu time    0.0009: real time    0.0009
    CHARGE:  cpu time    0.1498: real time    0.1508
    MIXING:  cpu time    0.0009: real time    0.0009
    --------------------------------------------
      LOOP:  cpu time    3.1631: real time    3.1955

 eigenvalue-minimisations  :  9744
 total energy-change (2. order) :-0.8992536E+01  (-0.1009229E+01)
 number of electron     251.9999883 magnetization      14.2568227
 augmentation part       75.1815403 magnetization      11.6572671

 Broyden mixing:
  rms(total) = 0.78854E+00    rms(broyden)= 0.78839E+00
  rms(prec ) = 0.80488E+00
  weight for this iteration     100.00

 eigenvalues of (default mixing * dielectric matrix)
  average eigenvalue GAMMA=   0.9898
  2.0638  1.2974  0.7095  0.4390  0.4390

 Free energy of the ion-electron system (eV)
  ---------------------------------------------------
  alpha Z        PSCENC =       765.83023115
  Ewald energy   TEWEN  =    -14247.71842038
  -Hartree energ DENC   =     -6472.63101204
  -exchange      EXHF   =         0.00000000
  -V(xc)+E(xc)   XCENC  =       870.12480443
  PAW double counting   =     23208.00478726   -23763.21974089
  entropy T*S    EENTRO =        -0.00000000
  eigenvalues    EBANDS =      -699.75336647
  atomic energy  EATOM  =     20137.07035884
  Solvation  Ediel_sol  =         0.00000000
  ---------------------------------------------------
  free energy    TOTEN  =      -202.29235810 eV

  energy without entropy =     -202.29235810  energy(sigma->0) =     -202.29235810


--------------------------------------------------------------------------------------------------------




----------------------------------------- Iteration    1(  18)  ---------------------------------------


    POTLOK:  cpu time    0.0237: real time    0.0239
    SETDIJ:  cpu time    0.0058: real time    0.0058
    EDDIAG:  cpu time    0.9751: real time    0.9824
  RMM-DIIS:  cpu time    1.7560: real time    1.7702
    ORTHCH:  cpu time    0.2461: real time    0.2476
       DOS:  cpu time    0.0009: real time    0.0009
    CHARGE:  cpu time    0.1505: real time    0.1514
    MIXING:  cpu time    0.0010: real time    0.0010
    --------------------------------------------
      LOOP:  cpu time    3.1606: real time    3.1929

 eigenvalue-minimisations  :  9744
 total energy-change (2. order) :-0.2104165E+01  (-0.2670936E+00)
 number of electron     251.9999879 magnetization      13.0712081
 augmentation part       74.5855774 magnetization      11.2475769

 Broyden mixing:
  rms(total) = 0.48891E+00    rms(broyden)= 0.48886E+00
  rms(prec ) = 0.50516E+00
  weight for this iteration     100.00

 eigenvalues of (default mixing * dielectric matrix)
  average eigenvalue GAMMA=   1.0838
  2.5630  1.3940  1.0216  0.4516  0.4516  0.6212

 Free energy of the ion-electron system (eV)
  ---------------------------------------------------
  alpha Z        PSCENC =       765.83023115
  Ewald energy   TEWEN  =    -14247.71842038
  -Hartree energ DENC   =     -6459.23699383
  -exchange      EXHF   =         0.00000000
  -V(xc)+E(xc)   XCENC  =       869.82275762
  PAW double counting   =     23177.58475679   -23739.05262316
  entropy T*S    EENTRO =        -0.00000000
  eigenvalues    EBANDS =      -708.69659012
  atomic energy  EATOM  =     20137.07035884
  Solvation  Ediel_sol  =         0.00000000
  ---------------------------------------------------
  free energy    TOTEN  =      -204.39652309 eV

  energy without entropy =     -204.39652309  energy(sigma->0) =     -204.39652309


--------------------------------------------------------------------------------------------------------




----------------------------------------- Iteration    1(  19)  ---------------------------------------


    POTLOK:  cpu time    0.0238: real time    0.0240
    SETDIJ:  cpu time    0.0058: real time    0.0058
    EDDIAG:  cpu time    0.9712: real time    0.9781
  RMM-DIIS:  cpu time    1.7526: real time    1.7668
    ORTHCH:  cpu time    0.2458: real time    0.2473
       DOS:  cpu time    0.0009: real time    0.0009
    CHARGE:  cpu time    0.1504: real time    0.1513
    MIXING:  cpu time    0.0010: real time    0.0010
    --------------------------------------------
      LOOP:  cpu time    3.1530: real time    3.1869

 eigenvalue-minimisations  :  9747
 total energy-change (2. order) :-0.1900627E+00  (-0.2596544E-01)
 number of electron     251.9999880 magnetization      12.8025215
 augmentation part       74.9371464 magnetization      11.3028381

 Broyden mixing:
  rms(total) = 0.29830E+00    rms(broyden)= 0.29828E+00
  rms(prec ) = 0.30097E+00
  weight for this iteration     100.00

 eigenvalues of (default mixing * dielectric matrix)
  average eigenvalue GAMMA=   1.1058
  2.2682  2.2682  1.0630  0.4511  0.4511  0.6196  0.6196

 Free energy of the ion-electron system (eV)
  ---------------------------------------------------
  alpha Z        PSCENC =       765.83023115
  Ewald energy   TEWEN  =    -14247.71842038
  -Hartree energ DENC   =     -6445.41738459
  -exchange      EXHF   =         0.00000000
  -V(xc)+E(xc)   XCENC  =       869.69838251
  PAW double counting   =     23306.31572353   -23868.65537321
  entropy T*S    EENTRO =        -0.00000000
  eigenvalues    EBANDS =      -721.71010369
  atomic energy  EATOM  =     20137.07035884
  Solvation  Ediel_sol  =         0.00000000
  ---------------------------------------------------
  free energy    TOTEN  =      -204.58658584 eV

  energy without entropy =     -204.58658584  energy(sigma->0) =     -204.58658584


--------------------------------------------------------------------------------------------------------




----------------------------------------- Iteration    1(  20)  ---------------------------------------


    POTLOK:  cpu time    0.0240: real time    0.0242
    SETDIJ:  cpu time    0.0058: real time    0.0058
    EDDIAG:  cpu time    0.9790: real time    0.9867
  RMM-DIIS:  cpu time    1.8068: real time    1.8229
    ORTHCH:  cpu time    0.2487: real time    0.2503
       DOS:  cpu time    0.0009: real time    0.0009
    CHARGE:  cpu time    0.1532: real time    0.1540
    MIXING:  cpu time    0.0012: real time    0.0012
    --------------------------------------------
      LOOP:  cpu time    3.2212: real time    3.2580

 eigenvalue-minimisations  : 10071
 total energy-change (2. order) :-0.4375083E-01  (-0.3329652E-02)
 number of electron     251.9999879 magnetization      12.4020957
 augmentation part       74.8111866 magnetization      10.9730209

 Broyden mixing:
  rms(total) = 0.20811E+00    rms(broyden)= 0.20811E+00
  rms(prec ) = 0.20951E+00
  weight for this iteration     100.00

 eigenvalues of (default mixing * dielectric matrix)
  average eigenvalue GAMMA=   1.1493
  2.6874  1.8960  1.6540  0.7574  0.7574  0.4588  0.4588  0.5248

 Free energy of the ion-electron system (eV)
  ---------------------------------------------------
  alpha Z        PSCENC =       765.83023115
  Ewald energy   TEWEN  =    -14247.71842038
  -Hartree energ DENC   =     -6442.60074557
  -exchange      EXHF   =         0.00000000
  -V(xc)+E(xc)   XCENC  =       869.63463195
  PAW double counting   =     23282.83852097   -23847.05624114
  entropy T*S    EENTRO =        -0.00000000
  eigenvalues    EBANDS =      -722.62867249
  atomic energy  EATOM  =     20137.07035884
  Solvation  Ediel_sol  =         0.00000000
  ---------------------------------------------------
  free energy    TOTEN  =      -204.63033667 eV

  energy without entropy =     -204.63033667  energy(sigma->0) =     -204.63033667


--------------------------------------------------------------------------------------------------------




----------------------------------------- Iteration    1(  21)  ---------------------------------------


    POTLOK:  cpu time    0.0243: real time    0.0244
    SETDIJ:  cpu time    0.0060: real time    0.0060
    EDDIAG:  cpu time    0.9668: real time    0.9738
  RMM-DIIS:  cpu time    1.7649: real time    1.7782
    ORTHCH:  cpu time    0.2460: real time    0.2480
       DOS:  cpu time    0.0009: real time    0.0009
    CHARGE:  cpu time    0.1496: real time    0.1506
    MIXING:  cpu time    0.0011: real time    0.0011
    --------------------------------------------
      LOOP:  cpu time    3.1610: real time    3.1941

 eigenvalue-minimisations  :  9766
 total energy-change (2. order) :-0.2187904E-01  (-0.1072397E-02)
 number of electron     251.9999879 magnetization      12.1226314
 augmentation part       74.7912343 magnetization      10.7437344

 Broyden mixing:
  rms(total) = 0.10961E+00    rms(broyden)= 0.10961E+00
  rms(prec ) = 0.11118E+00
  weight for this iteration     100.00

 eigenvalues of (default mixing * dielectric matrix)
  average eigenvalue GAMMA=   1.2630
  3.0575  2.1667  2.1667  0.9844  0.8886  0.4538  0.4538  0.6270  0.5683

 Free energy of the ion-electron system (eV)
  ---------------------------------------------------
  alpha Z        PSCENC =       765.83023115
  Ewald energy   TEWEN  =    -14247.71842038
  -Hartree energ DENC   =     -6440.81751919
  -exchange      EXHF   =         0.00000000
  -V(xc)+E(xc)   XCENC  =       869.68324531
  PAW double counting   =     23309.71122894   -23874.75490381
  entropy T*S    EENTRO =        -0.00000000
  eigenvalues    EBANDS =      -723.65643658
  atomic energy  EATOM  =     20137.07035884
  Solvation  Ediel_sol  =         0.00000000
  ---------------------------------------------------
  free energy    TOTEN  =      -204.65221571 eV

  energy without entropy =     -204.65221571  energy(sigma->0) =     -204.65221571


--------------------------------------------------------------------------------------------------------




----------------------------------------- Iteration    1(  22)  ---------------------------------------


    POTLOK:  cpu time    0.0236: real time    0.0238
    SETDIJ:  cpu time    0.0058: real time    0.0058
    EDDIAG:  cpu time    0.9591: real time    0.9662
  RMM-DIIS:  cpu time    1.7527: real time    1.7664
    ORTHCH:  cpu time    0.2457: real time    0.2472
       DOS:  cpu time    0.0008: real time    0.0008
    CHARGE:  cpu time    0.1518: real time    0.1528
    MIXING:  cpu time    0.0012: real time    0.0012
    --------------------------------------------
      LOOP:  cpu time    3.1423: real time    3.1740

 eigenvalue-minimisations  :  9744
 total energy-change (2. order) :-0.5060637E-02  (-0.5288679E-03)
 number of electron     251.9999879 magnetization      12.0911234
 augmentation part       74.8164098 magnetization      10.7590323

 Broyden mixing:
  rms(total) = 0.42715E-01    rms(broyden)= 0.42712E-01
  rms(prec ) = 0.42853E-01
  weight for this iteration     100.00

 eigenvalues of (default mixing * dielectric matrix)
  average eigenvalue GAMMA=   1.2316
  3.1751  2.2353  2.2353  0.9651  0.9651  0.4547  0.4547  0.6409  0.6409  0.5486

 Free energy of the ion-electron system (eV)
  ---------------------------------------------------
  alpha Z        PSCENC =       765.83023115
  Ewald energy   TEWEN  =    -14247.71842038
  -Hartree energ DENC   =     -6439.69522506
  -exchange      EXHF   =         0.00000000
  -V(xc)+E(xc)   XCENC  =       869.72964930
  PAW double counting   =     23331.00870834   -23896.68876546
  entropy T*S    EENTRO =        -0.00000000
  eigenvalues    EBANDS =      -724.19381307
  atomic energy  EATOM  =     20137.07035884
  Solvation  Ediel_sol  =         0.00000000
  ---------------------------------------------------
  free energy    TOTEN  =      -204.65727634 eV

  energy without entropy =     -204.65727634  energy(sigma->0) =     -204.65727634


--------------------------------------------------------------------------------------------------------




----------------------------------------- Iteration    1(  23)  ---------------------------------------


    POTLOK:  cpu time    0.0244: real time    0.0246
    SETDIJ:  cpu time    0.0062: real time    0.0062
    EDDIAG:  cpu time    0.9753: real time    0.9831
  RMM-DIIS:  cpu time    1.9155: real time    1.9334
    ORTHCH:  cpu time    0.2479: real time    0.2494
       DOS:  cpu time    0.0010: real time    0.0010
    CHARGE:  cpu time    0.1579: real time    0.1589
    MIXING:  cpu time    0.0014: real time    0.0014
    --------------------------------------------
      LOOP:  cpu time    3.3309: real time    3.3688

 eigenvalue-minimisations  : 10577
 total energy-change (2. order) :-0.3736209E-03  (-0.5220361E-04)
 number of electron     251.9999879 magnetization      12.0161207
 augmentation part       74.8144474 magnetization      10.6888589

 Broyden mixing:
  rms(total) = 0.30732E-01    rms(broyden)= 0.30731E-01
  rms(prec ) = 0.30855E-01
  weight for this iteration     100.00

 eigenvalues of (default mixing * dielectric matrix)
  average eigenvalue GAMMA=   1.3173
  3.4456  2.4099  2.4099  1.5788  1.0178  0.7706  0.7706  0.4539  0.4539  0.6005
  0.5793

 Free energy of the ion-electron system (eV)
  ---------------------------------------------------
  alpha Z        PSCENC =       765.83023115
  Ewald energy   TEWEN  =    -14247.71842038
  -Hartree energ DENC   =     -6439.89031435
  -exchange      EXHF   =         0.00000000
  -V(xc)+E(xc)   XCENC  =       869.74372693
  PAW double counting   =     23335.00979482   -23900.69419071
  entropy T*S    EENTRO =        -0.00000000
  eigenvalues    EBANDS =      -724.00883627
  atomic energy  EATOM  =     20137.07035884
  Solvation  Ediel_sol  =         0.00000000
  ---------------------------------------------------
  free energy    TOTEN  =      -204.65764997 eV

  energy without entropy =     -204.65764997  energy(sigma->0) =     -204.65764997


--------------------------------------------------------------------------------------------------------




----------------------------------------- Iteration    1(  24)  ---------------------------------------


    POTLOK:  cpu time    0.0245: real time    0.0246
    SETDIJ:  cpu time    0.0059: real time    0.0059
    EDDIAG:  cpu time    0.9758: real time    0.9831
  RMM-DIIS:  cpu time    1.7751: real time    1.7904
    ORTHCH:  cpu time    0.2467: real time    0.2483
       DOS:  cpu time    0.0009: real time    0.0009
    CHARGE:  cpu time    0.1569: real time    0.1579
    MIXING:  cpu time    0.0014: real time    0.0014
    --------------------------------------------
      LOOP:  cpu time    3.1886: real time    3.2251

 eigenvalue-minimisations  :  9876
 total energy-change (2. order) :-0.2829377E-03  (-0.2314448E-04)
 number of electron     251.9999879 magnetization      12.0066610
 augmentation part       74.8189065 magnetization      10.6967639

 Broyden mixing:
  rms(total) = 0.80045E-02    rms(broyden)= 0.80024E-02
  rms(prec ) = 0.80483E-02
  weight for this iteration     100.00

 eigenvalues of (default mixing * dielectric matrix)
  average eigenvalue GAMMA=   1.3161
  3.5055  2.5529  2.5529  1.7853  1.0619  0.8017  0.8017  0.4540  0.4540  0.6296
  0.6296  0.5637

 Free energy of the ion-electron system (eV)
  ---------------------------------------------------
  alpha Z        PSCENC =       765.83023115
  Ewald energy   TEWEN  =    -14247.71842038
  -Hartree energ DENC   =     -6439.82668274
  -exchange      EXHF   =         0.00000000
  -V(xc)+E(xc)   XCENC  =       869.76405470
  PAW double counting   =     23343.60671611   -23909.30239561
  entropy T*S    EENTRO =        -0.00000000
  eigenvalues    EBANDS =      -724.08179498
  atomic energy  EATOM  =     20137.07035884
  Solvation  Ediel_sol  =         0.00000000
  ---------------------------------------------------
  free energy    TOTEN  =      -204.65793290 eV

  energy without entropy =     -204.65793290  energy(sigma->0) =     -204.65793290


--------------------------------------------------------------------------------------------------------




----------------------------------------- Iteration    1(  25)  ---------------------------------------


    POTLOK:  cpu time    0.0247: real time    0.0249
    SETDIJ:  cpu time    0.0060: real time    0.0060
    EDDIAG:  cpu time    0.9879: real time    0.9954
  RMM-DIIS:  cpu time    1.8135: real time    1.8307
    ORTHCH:  cpu time    0.2441: real time    0.2456
       DOS:  cpu time    0.0009: real time    0.0009
    CHARGE:  cpu time    0.1515: real time    0.1524
    MIXING:  cpu time    0.0014: real time    0.0014
    --------------------------------------------
      LOOP:  cpu time    3.2317: real time    3.2697

 eigenvalue-minimisations  : 10055
 total energy-change (2. order) :-0.9378633E-05  (-0.2921744E-05)
 number of electron     251.9999879 magnetization      12.0048828
 augmentation part       74.8194787 magnetization      10.6971321

 Broyden mixing:
  rms(total) = 0.32969E-02    rms(broyden)= 0.32964E-02
  rms(prec ) = 0.33376E-02
  weight for this iteration     100.00

 eigenvalues of (default mixing * dielectric matrix)
  average eigenvalue GAMMA=   1.2904
  3.5363  2.5219  2.5219  1.9226  1.0575  0.9010  0.9010  0.4539  0.4539  0.6738
  0.6738  0.5787  0.5787

 Free energy of the ion-electron system (eV)
  ---------------------------------------------------
  alpha Z        PSCENC =       765.83023115
[...]
 -5.356  -0.000   0.000   0.677   0.000  -5.852  -0.000   0.000
 -0.000  -5.643   0.000   0.000   0.677  -0.000  -6.130   0.000
  0.000   0.000  -3.343  -0.000  -0.000   0.000   0.000  -3.827
  0.677   0.000  -0.000  -5.643  -0.000   0.686   0.000  -0.000
  0.000   0.677  -0.000  -0.000  -5.356   0.000   0.686  -0.000
 -5.852  -0.000   0.000   0.686   0.000  -6.300  -0.000   0.000
 -0.000  -6.130   0.000   0.000   0.686  -0.000  -6.569   0.000
  0.000   0.000  -3.827  -0.000  -0.000   0.000   0.000  -4.245
  0.686   0.000  -0.000  -6.130  -0.000   0.703   0.000  -0.000
  0.000   0.686  -0.000  -0.000  -5.852   0.000   0.703  -0.000
  0.000  -0.000  -0.002   0.000  -0.000   0.000  -0.000  -0.005
  0.000  -0.000  -0.006   0.000  -0.000   0.000  -0.000  -0.010
 -0.000   0.000  -0.000  -0.000  -0.000  -0.000   0.000  -0.000
 -0.000   0.000   0.000  -0.000   0.000  -0.000   0.000   0.000
 -0.000  -0.000   0.000   0.000  -0.000  -0.000  -0.000   0.000
 -0.000   0.000  -0.000  -0.000  -0.000  -0.000   0.000  -0.000
 -0.000   0.000   0.000  -0.000   0.000  -0.000   0.000   0.000
  0.000  -0.000   0.000   0.000  -0.000   0.000  -0.000   0.000
 total augmentation occupancy for first ion, spin component:           1
  6.579   0.000  -0.000  -2.702   0.000  -5.166  -0.000   0.000   0.940  -0.000  -0.000   0.000  -0.000   0.000   0.000   0.000
  0.000   6.646  -0.000   0.000  -2.702  -0.000  -5.295   0.000  -0.000   0.779  -0.000   0.000   0.000   0.000   0.000   0.000
 -0.000  -0.000   5.821   0.000   0.000   0.000   0.000  -4.085  -0.000  -0.000   0.694  -0.095  -0.000   0.000   0.000   0.000
 -2.702   0.000   0.000   6.646  -0.000   0.779  -0.000  -0.000  -5.295   0.000  -0.000   0.000   0.000   0.000   0.000   0.000
  0.000  -2.702   0.000  -0.000   6.579  -0.000   0.940  -0.000   0.000  -5.166   0.000  -0.000   0.000   0.000   0.000   0.000
 -5.166  -0.000   0.000   0.779  -0.000   5.355  -0.000  -0.000   0.499   0.000   0.000  -0.000   0.000   0.000   0.000   0.000
 -0.000  -5.295   0.000  -0.000   0.940  -0.000   5.527   0.000   0.000   0.499   0.000  -0.000   0.000   0.000  -0.000   0.000
  0.000   0.000  -4.085  -0.000  -0.000  -0.000   0.000   3.514  -0.000   0.000  -0.805   0.152   0.000   0.000  -0.000   0.000
  0.940  -0.000  -0.000  -5.295   0.000   0.499   0.000  -0.000   5.527   0.000   0.000  -0.000  -0.000   0.000   0.000  -0.000
 -0.000   0.779  -0.000   0.000  -5.166   0.000   0.499   0.000   0.000   5.355  -0.000   0.000   0.000   0.000   0.000   0.000
 -0.000  -0.000   0.694  -0.000   0.000   0.000   0.000  -0.805   0.000  -0.000   2.694  -0.491   0.000   0.000  -0.000   0.000
  0.000   0.000  -0.095   0.000  -0.000  -0.000  -0.000   0.152  -0.000   0.000  -0.491   0.138   0.000   0.000  -0.000   0.000
  0.000   0.000   0.000   0.000   0.000   0.000   0.000  -0.000   0.000   0.000   0.000   0.000   0.562   0.000   0.000  -0.087
 -0.000   0.000   0.000   0.000   0.000  -0.000   0.000   0.000   0.000   0.000   0.000   0.000   0.000   0.426  -0.000  -0.000
  0.000   0.000  -0.000   0.000  -0.000   0.000  -0.000  -0.000   0.000   0.000   0.000   0.000   0.000  -0.000   0.562  -0.000
  0.000   0.000   0.000   0.000   0.000  -0.000   0.000   0.000   0.000   0.000  -0.000   0.000  -0.087  -0.000  -0.000   0.018
  0.000   0.000   0.000   0.000  -0.000   0.000   0.000   0.000   0.000   0.000   0.000   0.000  -0.000  -0.060   0.000   0.000
 -0.000  -0.000   0.000   0.000  -0.000   0.000  -0.000   0.000   0.000  -0.000   0.000  -0.000  -0.000   0.000  -0.087   0.000
 total augmentation occupancy for first ion, spin component:           2
  0.482   0.000  -0.000  -0.150   0.000  -0.178  -0.000   0.000   0.259  -0.000  -0.000  -0.000   0.000  -0.000   0.000   0.000
  0.000   0.131  -0.000   0.000  -0.150  -0.000   0.101   0.000   0.000   0.299  -0.000  -0.000   0.000   0.000  -0.000  -0.000
 -0.000  -0.000   5.185  -0.000   0.000   0.000   0.000  -3.129  -0.000  -0.000   0.030   0.069   0.000   0.000  -0.000  -0.000
 -0.150   0.000  -0.000   0.131  -0.000   0.299   0.000  -0.000   0.101   0.000   0.000  -0.000  -0.000   0.000  -0.000  -0.000
  0.000  -0.150   0.000  -0.000   0.482  -0.000   0.259  -0.000   0.000  -0.178   0.000   0.000  -0.000   0.000   0.000  -0.000
 -0.178  -0.000   0.000   0.299  -0.000  -0.031   0.000  -0.000  -0.329   0.000   0.000   0.000  -0.000   0.000   0.000  -0.000
 -0.000   0.101   0.000   0.000   0.259   0.000  -0.265  -0.000  -0.000  -0.329   0.000   0.000   0.000   0.000  -0.000  -0.000
  0.000   0.000  -3.129  -0.000  -0.000  -0.000  -0.000   2.000   0.000   0.000  -0.037  -0.035   0.000   0.000  -0.000   0.000
  0.259   0.000  -0.000   0.101   0.000  -0.329  -0.000   0.000  -0.265  -0.000   0.000   0.000  -0.000   0.000   0.000   0.000
 -0.000   0.299  -0.000   0.000  -0.178   0.000  -0.329   0.000  -0.000  -0.031  -0.000  -0.000  -0.000  -0.000   0.000  -0.000
 -0.000  -0.000   0.030   0.000   0.000   0.000   0.000  -0.037   0.000  -0.000  -0.119   0.054   0.000   0.000   0.000   0.000
 -0.000  -0.000   0.069  -0.000   0.000   0.000   0.000  -0.035   0.000  -0.000   0.054  -0.008  -0.000   0.000   0.000   0.000
  0.000   0.000   0.000  -0.000   0.000  -0.000   0.000  -0.000   0.000  -0.000  -0.000   0.000   0.000   0.000   0.000   0.005
 -0.000   0.000   0.000   0.000   0.000   0.000   0.000   0.000   0.000   0.000   0.000   0.000   0.000   0.000   0.000   0.000
  0.000   0.000   0.000  -0.000  -0.000   0.000  -0.000   0.000   0.000  -0.000   0.000  -0.000   0.000   0.000   0.000   0.000
  0.000   0.000   0.000  -0.000   0.000  -0.000   0.000   0.000  -0.000  -0.000  -0.000   0.000   0.005   0.000   0.000  -0.001
  0.000   0.000   0.000   0.000   0.000  -0.000   0.000   0.000  -0.000   0.000   0.000   0.000   0.000   0.003  -0.000  -0.000
  0.000   0.000   0.000   0.000   0.000  -0.000  -0.000  -0.000   0.000   0.000   0.000  -0.000   0.000  -0.000   0.005  -0.000


------------------------ aborting loop because EDIFF is reached ----------------------------------------


    CHARGE:  cpu time    0.1560: real time    0.1570
    FORLOC:  cpu time    0.0021: real time    0.0021
    FORNL :  cpu time    0.6598: real time    0.6646
    STRESS:  cpu time    1.9529: real time    1.9652
    FORCOR:  cpu time    0.0245: real time    0.0246
    FORHAR:  cpu time    0.0043: real time    0.0043
    MIXING:  cpu time    0.0009: real time    0.0009
    OFIELD:  cpu time    0.0001: real time    0.0001

 ---------------------------------------------------------------------------------------------

         DFTD3 V3.0 Rev 1        
 Edisp (eV)   -5.35527

 E6    (eV) :    -3.5051
 E8    (eV) :    -1.8502
 % E8        : 34.55
    FORVDW:  cpu time    0.2479: real time    0.2495

  FORCE on cell =-STRESS in cart. coord.  units (eV):
  Direction    XX          YY          ZZ          XY          YZ          ZX
  --------------------------------------------------------------------------------------
  Alpha Z   765.27746   765.27746   765.27746
  Ewald   -1809.79998 -1809.79998-10627.43030    -0.00000     0.00000    -0.00000
  Hartree  4131.59478  4131.59478 -1824.34610    -0.00000    -0.00000    -0.00000
  E(xc)   -1264.71957 -1264.71959 -1264.10338    -0.00003    -0.00000    -0.00001
  Local   -7284.42201 -7284.42385  7463.70036    -0.00160    -0.00004    -0.00000
  n-local  -566.24790  -567.39271  -571.05064     1.19005    -0.16866     1.70789
  augment  2025.54333  2025.54462  1962.85459     0.00112     0.00001    -0.00001
  Kinetic  4007.62773  4010.10064  4100.73873    -1.32474     1.71100     7.06206
  Fock        0.00000     0.00000     0.00000     0.00000     0.00000     0.00000
  vdW        -5.57096    -5.57096    -5.91729    -0.00000    -0.00000     0.00000
  -------------------------------------------------------------------------------------
  Total      -0.05336    -0.05336    -0.27657    -0.00000     0.00000     0.00000
  in kB      -0.23168    -0.23168    -1.20083    -0.00000     0.00000     0.00000
  external pressure =       -0.55 kB  Pullay stress =        0.00 kB


 VOLUME and BASIS-vectors are now :
 -----------------------------------------------------------------------------
  energy-cutoff  :      600.00
  volume of cell :      369.00
      direct lattice vectors                 reciprocal lattice vectors
     5.635609468  0.000000000  0.000000000     0.177443097  0.102446820  0.000000000
    -2.817804734  4.880580966  0.000000000    -0.000000000  0.204893640 -0.000000000
    -0.000000000  0.000000000 13.415745189    -0.000000000 -0.000000000  0.074539281

  length of vectors
     5.635609468  5.635609468 13.415745189     0.204893640  0.204893640  0.074539281


 FORCES acting on ions
    electron-ion (+dipol)            ewald-force                    non-local-force                 convergence-correction
 -----------------------------------------------------------------------------------------------
   -.355E-05 0.254E-05 -.101E-03   0.657E-05 -.379E-05 -.805E-05   -.970E-21 0.759E-21 0.000E+00   0.981E-11 -.562E-11 0.802E-05
   -.193E-14 -.356E-13 -.327E-14   0.194E-13 -.216E-13 0.924E-13   -.220E-20 0.105E-20 0.602E-20   -.194E-12 -.170E-12 0.717E-12
   0.355E-05 -.254E-05 0.101E-03   -.657E-05 0.379E-05 0.805E-05   -.724E-21 0.512E-21 0.000E+00   -.962E-11 0.556E-11 -.802E-05
   -.355E-05 0.254E-05 -.101E-03   0.657E-05 -.379E-05 -.805E-05   -.759E-21 -.880E-22 0.000E+00   0.971E-11 -.562E-11 0.802E-05
   -.274E-12 0.548E-12 -.126E-12   -.314E-13 -.376E-13 0.213E-13   -.186E-20 0.909E-21 0.151E-18   -.116E-12 0.817E-14 0.672E-12
   0.355E-05 -.254E-05 0.101E-03   -.657E-05 0.379E-05 0.805E-05   -.136E-20 0.935E-21 0.000E+00   -.964E-11 0.576E-11 -.802E-05
   -.355E-05 0.254E-05 -.101E-03   0.657E-05 -.379E-05 -.805E-05   0.935E-21 -.880E-22 0.000E+00   0.964E-11 -.562E-11 0.802E-05
   0.641E-12 0.391E-13 -.262E-11   -.524E-13 -.675E-13 0.639E-13   -.172E-20 0.896E-21 0.602E-20   0.164E-12 -.296E-13 0.787E-12
   0.355E-05 -.254E-05 0.101E-03   -.657E-05 0.379E-05 0.805E-05   -.935E-21 0.512E-21 0.000E+00   -.981E-11 0.548E-11 -.802E-05
   -.355E-05 0.254E-05 -.101E-03   0.657E-05 -.379E-05 -.805E-05   0.300E-21 0.335E-21 0.000E+00   0.969E-11 -.569E-11 0.802E-05
   0.674E-12 0.877E-12 0.320E-12   -.300E-13 -.161E-13 0.639E-13   -.192E-20 0.139E-20 -.145E-18   0.114E-12 0.209E-12 0.810E-12
   0.355E-05 -.254E-05 0.101E-03   -.657E-05 0.379E-05 0.805E-05   -.512E-21 0.880E-22 0.000E+00   -.982E-11 0.563E-11 -.802E-05
   -.137E-04 0.892E-05 0.306E+03   -.463E-05 0.267E-05 -.332E+03   -.240E-15 -.472E-17 0.260E+02   0.239E-08 -.138E-08 -.737E-03
   0.300E-06 -.171E-05 -.306E+03   -.203E-05 0.117E-05 0.332E+03   0.229E-15 0.190E-17 -.260E+02   -.241E-08 0.139E-08 0.747E-03
   0.156E-04 -.903E-05 0.306E+03   0.259E-05 -.150E-05 -.332E+03   -.235E-15 0.352E-17 0.260E+02   0.242E-08 -.140E-08 -.738E-03
   -.156E-04 0.903E-05 -.306E+03   -.259E-05 0.150E-05 0.332E+03   0.232E-15 0.168E-17 -.260E+02   -.242E-08 0.140E-08 0.738E-03
   -.300E-06 0.171E-05 0.306E+03   0.203E-05 -.117E-05 -.332E+03   -.231E-15 -.352E-17 0.260E+02   0.241E-08 -.139E-08 -.747E-03
   0.137E-04 -.892E-05 -.306E+03   0.463E-05 -.267E-05 0.332E+03   0.236E-15 0.201E-17 -.260E+02   -.239E-08 0.138E-08 0.737E-03
   -.137E-04 0.892E-05 0.306E+03   -.463E-05 0.267E-05 -.332E+03   -.238E-15 -.298E-17 0.260E+02   0.239E-08 -.138E-08 -.737E-03
   0.300E-06 -.171E-05 -.306E+03   -.203E-05 0.117E-05 0.332E+03   0.235E-15 -.162E-18 -.260E+02   -.241E-08 0.139E-08 0.747E-03
   0.156E-04 -.903E-05 0.306E+03   0.259E-05 -.150E-05 -.332E+03   -.236E-15 -.814E-18 0.260E+02   0.242E-08 -.140E-08 -.738E-03
   -.156E-04 0.903E-05 -.306E+03   -.259E-05 0.150E-05 0.332E+03   0.232E-15 0.396E-17 -.260E+02   -.242E-08 0.140E-08 0.738E-03
   -.300E-06 0.171E-05 0.306E+03   0.203E-05 -.117E-05 -.332E+03   -.238E-15 -.244E-17 0.260E+02   0.241E-08 -.139E-08 -.747E-03
   0.137E-04 -.892E-05 -.306E+03   0.463E-05 -.267E-05 0.332E+03   0.234E-15 -.222E-17 -.260E+02   -.239E-08 0.138E-08 0.737E-03
   -.137E-04 0.892E-05 0.306E+03   -.463E-05 0.267E-05 -.332E+03   -.235E-15 -.114E-17 0.260E+02   0.239E-08 -.138E-08 -.737E-03
   0.300E-06 -.171E-05 -.306E+03   -.203E-05 0.117E-05 0.332E+03   0.236E-15 -.921E-18 -.260E+02   -.241E-08 0.139E-08 0.747E-03
   0.156E-04 -.903E-05 0.306E+03   0.259E-05 -.150E-05 -.332E+03   -.236E-15 -.103E-17 0.260E+02   0.242E-08 -.140E-08 -.738E-03
   -.156E-04 0.903E-05 -.306E+03   -.259E-05 0.150E-05 0.332E+03   0.233E-15 0.146E-17 -.260E+02   -.242E-08 0.140E-08 0.738E-03
   -.300E-06 0.171E-05 0.306E+03   0.203E-05 -.117E-05 -.332E+03   -.232E-15 -.114E-17 0.260E+02   0.241E-08 -.139E-08 -.747E-03
   0.137E-04 -.892E-05 -.306E+03   0.463E-05 -.267E-05 0.332E+03   0.233E-15 0.157E-17 -.260E+02   -.239E-08 0.138E-08 0.737E-03
   -.137E-04 0.892E-05 0.306E+03   -.463E-05 0.267E-05 -.332E+03   -.234E-15 -.428E-17 0.260E+02   0.239E-08 -.138E-08 -.737E-03
   0.300E-06 -.171E-05 -.306E+03   -.203E-05 0.117E-05 0.332E+03   0.234E-15 0.537E-17 -.260E+02   -.241E-08 0.139E-08 0.747E-03
   0.156E-04 -.903E-05 0.306E+03   0.259E-05 -.150E-05 -.332E+03   -.231E-15 0.537E-19 0.260E+02   0.242E-08 -.140E-08 -.738E-03
   -.156E-04 0.903E-05 -.306E+03   -.259E-05 0.150E-05 0.332E+03   0.228E-15 0.569E-17 -.260E+02   -.242E-08 0.140E-08 0.738E-03
   -.300E-06 0.171E-05 0.306E+03   0.203E-05 -.117E-05 -.332E+03   -.237E-15 -.255E-17 0.260E+02   0.241E-08 -.139E-08 -.747E-03
   0.137E-04 -.892E-05 -.306E+03   0.463E-05 -.267E-05 0.332E+03   0.234E-15 -.211E-17 -.260E+02   -.239E-08 0.138E-08 0.737E-03
 -----------------------------------------------------------------------------------------------
   0.103E-10 0.113E-10 -.870E-11   0.380E-13 0.226E-12 0.284E-12   -.269E-16 -.281E-17 0.000E+00   -.429E-13 -.260E-12 -.833E-12
 
 
 POSITION                                       TOTAL-FORCE (eV/Angst)
 -----------------------------------------------------------------------------------
     -0.00000      1.62686      2.23596         0.000000      0.000000      0.000000
     -0.00000      0.00000      6.70787         0.000000     -0.000000      0.000000
      1.40890      0.81343     11.17979         0.000000     -0.000000      0.000000
     -1.40890      4.06715      2.23596         0.000000     -0.000000      0.000000
     -1.40890      2.44029      6.70787         0.000000      0.000000      0.000000
      0.00000      3.25372     11.17979         0.000000     -0.000000      0.000000
      2.81780      1.62686      2.23596         0.000000      0.000000      0.000000
      2.81780      0.00000      6.70787         0.000000      0.000000      0.000000
      4.22671      0.81343     11.17979         0.000000     -0.000000      0.000000
      1.40890      4.06715      2.23596         0.000000      0.000000      0.000000
      1.40890      2.44029      6.70787         0.000000     -0.000000      0.000000
      2.81780      3.25372     11.17979         0.000000     -0.000000      0.000000
      1.40890      0.81343      1.29498        -0.000000      0.000000      0.006793
     -0.00000      0.00000      3.17694         0.000000     -0.000000     -0.006793
     -0.00000      1.62686      5.76689        -0.000000      0.000000      0.006793
      1.40890      0.81343      7.64885         0.000000     -0.000000     -0.006793
     -0.00000      0.00000     10.23881        -0.000000      0.000000      0.006793
     -0.00000      1.62686     12.12077         0.000000     -0.000000     -0.006793
      0.00000      3.25372      1.29498        -0.000000      0.000000      0.006793
     -1.40890      2.44029      3.17694         0.000000     -0.000000     -0.006793
     -1.40890      4.06715      5.76689        -0.000000      0.000000      0.006793
      0.00000      3.25372      7.64885         0.000000     -0.000000     -0.006793
     -1.40890      2.44029     10.23881        -0.000000      0.000000      0.006793
     -1.40890      4.06715     12.12077         0.000000     -0.000000     -0.006793
      4.22671      0.81343      1.29498        -0.000000      0.000000      0.006793
      2.81780      0.00000      3.17694         0.000000     -0.000000     -0.006793
      2.81780      1.62686      5.76689        -0.000000      0.000000      0.006793
      4.22671      0.81343      7.64885         0.000000     -0.000000     -0.006793
      2.81780      0.00000     10.23881        -0.000000      0.000000      0.006793
      2.81780      1.62686     12.12077         0.000000     -0.000000     -0.006793
      2.81780      3.25372      1.29498        -0.000000      0.000000      0.006793
      1.40890      2.44029      3.17694         0.000000     -0.000000     -0.006793
      1.40890      4.06715      5.76689        -0.000000      0.000000      0.006793
      2.81780      3.25372      7.64885         0.000000     -0.000000     -0.006793
      1.40890      2.44029     10.23881        -0.000000      0.000000      0.006793
      1.40890      4.06715     12.12077         0.000000     -0.000000     -0.006793
 -----------------------------------------------------------------------------------
    total drift:                                0.000000      0.000000     -0.000000


--------------------------------------------------------------------------------------------------------



  FREE ENERGIE OF THE ION-ELECTRON SYSTEM (eV)
  ---------------------------------------------------
  free  energy   TOTEN  =      -210.01742627 eV

  energy  without entropy=     -210.01742627  energy(sigma->0) =     -210.01742627
 
 d Force = 0.2646523E-04[ 0.328E-04, 0.201E-04]  d Energy = 0.2220516E-03-0.196E-03
 d Force =-0.1602450E+01[-0.160E+01,-0.160E+01]  d Ewald  =-0.7521405E+00-0.850E+00


--------------------------------------------------------------------------------------------------------


    POTLOK:  cpu time    0.1060: real time    0.1069


--------------------------------------------------------------------------------------------------------


 stress matrix after NEB project (eV)
     -0.05336      0.00000      0.00000
     -0.00000     -0.05336      0.00000
     -0.00000      0.00000     -0.27657
  FORCES: max atom, RMS     0.006793    0.005546
  FORCE total and by dimension    0.033278    0.006793
  Stress total and by dimension    0.286675    0.276565
 Steepest descent step on ions:
 trial-energy change:   -0.000222  1 .order   -0.000231   -0.000413   -0.000049
  (g-gl).g = 0.413E-03      g.g   = 0.413E-03  gl.gl    = 0.000E+00
 g(Force)  = 0.201E-04   g(Stress)= 0.393E-03 ortho     = 0.000E+00
 gamma     =   0.00000
 trial     =   1.00000
 opt step  =   1.16215  (harmonic =   1.13391) maximal distance =0.00023384
 next E    =  -210.017430   (d E  =  -0.00023)


--------------------------------------------------------------------------------------------------------


  
 reached required accuracy - stopping structural energy minimisation
     LOOP+:  cpu time   27.1233: real time   27.4060
    4ORBIT:  cpu time    0.0000: real time    0.0000

 total amount of memory used by VASP on root node    58043. kBytes
========================================================================

   base      :      30000. kBytes
   nonlr-proj:       2801. kBytes
   fftplans  :       1177. kBytes
   grid      :       3019. kBytes
   one-center:        155. kBytes
   wavefun   :      20891. kBytes
 
  
  
 General timing and accounting informations for this job:
 ========================================================
  
                  Total CPU time used (sec):      116.432
                            User time (sec):      114.618
                          System time (sec):        1.814
                         Elapsed time (sec):      120.724
  
                   Maximum memory used (kb):      476860.
                   Average memory used (kb):           0.
  
                          Minor page faults:        89477
                          Major page faults:           96
                 Voluntary context switches:         5300
