 vasp.5.4.1 05Feb16 (build Apr 23 2022 14:15:44) complex                        
  
 executed on           IFC91_ompi date 2024.10.23  12:53:13
 running on   16 total cores
 distrk:  each k-point on   16 cores,    1 groups
 distr:  one band on NCORES_PER_BAND=   8 cores,    2 groups


--------------------------------------------------------------------------------------------------------


 INCAR:
 POTCAR:    PAW_PBE Ti 08Apr2002                  
 POTCAR:    PAW_PBE O 08Apr2002                   
 POTCAR:    PAW_PBE Li 17Jan2003                  
 POTCAR:    PAW_PBE Ti 08Apr2002                  
   VRHFIN =Ti: d3 s1                                                            
   LEXCH  = PE                                                                  
   EATOM  =    94.7928 eV,    6.9671 Ry                                         
                                                                                
   TITEL  = PAW_PBE Ti 08Apr2002                                                
   LULTRA =        F    use ultrasoft PP ?                                      
   IUNSCR =        1    unscreen: 0-lin 1-nonlin 2-no                           
   RPACOR =    2.200    partial core radius                                     
   POMASS =   47.880; ZVAL   =    4.000    mass and valenz                      
   RCORE  =    2.800    outmost cutoff radius                                   
   RWIGS  =    2.500; RWIGS  =    1.323    wigner-seitz radius (au A)           
   ENMAX  =  178.330; ENMIN  =  133.747 eV                                      
   RCLOC  =    2.215    cutoff for local pot                                    
   LCOR   =        T    correct aug charges                                     
   LPAW   =        T    paw PP                                                  
   EAUG   =  328.883                                                            
   DEXC   =    0.000                                                            
   RMAX   =    2.868    core radius for proj-oper                               
   RAUG   =    1.300    factor for augmentation sphere                          
   RDEP   =    2.885    radius for radial grids                                 
   RDEPT  =    2.320    core radius for aug-charge                              
                                                                                
   Atomic configuration                                                         
    9 entries                                                                   
     n  l   j            E        occ.                                          
     1  0  0.50     -4865.3608   2.0000                                         
     2  0  0.50      -533.1367   2.0000                                         
     2  1  1.50      -440.5031   6.0000                                         
     3  0  0.50       -59.3186   2.0000                                         
     3  1  1.50       -35.7012   6.0000                                         
     3  2  2.50        -1.9157   3.0000                                         
     4  0  0.50        -3.7291   1.0000                                         
     4  1  1.50        -4.0817   0.0000                                         
     4  3  2.50        -1.3606   0.0000                                         
   Description                                                                  
     l       E           TYP  RCUT    TYP  RCUT                                 
     2     -1.9156924     23  2.800                                             
     2     -0.4062961     23  2.800                                             
     0     -3.7290832     23  2.800                                             
     0     20.4087390     23  2.800                                             
     1     -5.4423304     23  2.800                                             
  local pseudopotential read in
  partial core-charges read in
  partial kinetic energy density read in
  atomic valenz-charges read in
  non local Contribution for L=           2  read in
    real space projection operators read in
  non local Contribution for L=           2  read in
    real space projection operators read in
  non local Contribution for L=           0  read in
    real space projection operators read in
  non local Contribution for L=           0  read in
    real space projection operators read in
  non local Contribution for L=           1  read in
    real space projection operators read in
    PAW grid and wavefunctions read in
 
   number of l-projection  operators is LMAX  =           5
   number of lm-projection operators is LMMAX =          15
 
 POTCAR:    PAW_PBE O 08Apr2002                   
   VRHFIN =O: s2p4                                                              
   LEXCH  = PE                                                                  
   EATOM  =   432.3788 eV,   31.7789 Ry                                         
                                                                                
   TITEL  = PAW_PBE O 08Apr2002                                                 
   LULTRA =        F    use ultrasoft PP ?                                      
   IUNSCR =        1    unscreen: 0-lin 1-nonlin 2-no                           
   RPACOR =    1.200    partial core radius                                     
   POMASS =   16.000; ZVAL   =    6.000    mass and valenz                      
   RCORE  =    1.520    outmost cutoff radius                                   
   RWIGS  =    1.550; RWIGS  =    0.820    wigner-seitz radius (au A)           
   ENMAX  =  400.000; ENMIN  =  300.000 eV                                      
   ICORE  =        2    local potential                                         
   LCOR   =        T    correct aug charges                                     
   LPAW   =        T    paw PP                                                  
   EAUG   =  605.392                                                            
   DEXC   =    0.000                                                            
   RMAX   =    1.553    core radius for proj-oper                               
   RAUG   =    1.300    factor for augmentation sphere                          
   RDEP   =    1.550    radius for radial grids                                 
   RDEPT  =    1.329    core radius for aug-charge                              
                                                                                
   Atomic configuration                                                         
    4 entries                                                                   
     n  l   j            E        occ.                                          
     1  0  0.50      -514.6923   2.0000                                         
     2  0  0.50       -23.9615   2.0000                                         
     2  1  0.50        -9.0305   4.0000                                         
     3  2  1.50        -9.5241   0.0000                                         
   Description                                                                  
     l       E           TYP  RCUT    TYP  RCUT                                 
     0    -23.9615318     23  1.200                                             
     0     -9.5240782     23  1.200                                             
     1     -9.0304911     23  1.520                                             
     1      8.1634956     23  1.520                                             
     2     -9.5240782      7  1.500                                             
  local pseudopotential read in
  partial core-charges read in
  partial kinetic energy density read in
  kinetic energy density of atom read in
  atomic valenz-charges read in
  non local Contribution for L=           0  read in
    real space projection operators read in
  non local Contribution for L=           0  read in
    real space projection operators read in
  non local Contribution for L=           1  read in
    real space projection operators read in
  non local Contribution for L=           1  read in
    real space projection operators read in
    PAW grid and wavefunctions read in
 
   number of l-projection  operators is LMAX  =           4
   number of lm-projection operators is LMMAX =           8
 
 POTCAR:    PAW_PBE Li 17Jan2003                  
   VRHFIN =Li: s1p0                                                             
   LEXCH  = PE                                                                  
   EATOM  =     5.3001 eV,    0.3895 Ry                                         
                                                                                
   TITEL  = PAW_PBE Li 17Jan2003                                                
   LULTRA =        F    use ultrasoft PP ?                                      
   IUNSCR =        1    unscreen: 0-lin 1-nonlin 2-no                           
   RPACOR =    1.500    partial core radius                                     
   POMASS =    7.010; ZVAL   =    1.000    mass and valenz                      
   RCORE  =    2.050    outmost cutoff radius                                   
   RWIGS  =    2.600; RWIGS  =    1.376    wigner-seitz radius (au A)           
   ENMAX  =  140.000; ENMIN  =  100.000 eV                                      
   ICORE  =        2    local potential                                         
   LCOR   =        T    correct aug charges                                     
   LPAW   =        T    paw PP                                                  
   EAUG   =  331.638                                                            
   DEXC   =    0.000                                                            
   RMAX   =    2.098    core radius for proj-oper                               
   RAUG   =    1.300    factor for augmentation sphere                          
   RDEP   =    2.094    radius for radial grids                                 
   RDEPT  =    1.810    core radius for aug-charge                              
                                                                                
   Atomic configuration                                                         
    4 entries                                                                   
     n  l   j            E        occ.                                          
     1  0  0.50       -51.8549   2.0000                                         
     2  0  0.50        -2.8742   1.0000                                         
     2  1  0.50        -1.3606   0.0000                                         
     3  2  1.50        -1.3606   0.0000                                         
   Description                                                                  
     l       E           TYP  RCUT    TYP  RCUT                                 
     0     -2.8742052     23  2.050                                             
     0     27.2116520     23  2.050                                             
     1     -1.3605826     23  2.050                                             
     2     -1.3605826     23  2.050                                             
  local pseudopotential read in
  partial core-charges read in
  partial kinetic energy density read in
  atomic valenz-charges read in
  non local Contribution for L=           0  read in
    real space projection operators read in
  non local Contribution for L=           0  read in
    real space projection operators read in
  non local Contribution for L=           1  read in
    real space projection operators read in
    PAW grid and wavefunctions read in
 
   number of l-projection  operators is LMAX  =           3
   number of lm-projection operators is LMMAX =           5
 
 Optimization of the real space projectors (new method)

 maximal supplied QI-value         = 13.42
 optimisation between [QCUT,QGAM] = [ 12.48, 25.09] = [ 43.60,176.28] Ry 
 Optimized for a Real-space Cutoff    1.56 Angstroem

   l    n(q)    QCUT    max X(q) W(low)/X(q) W(high)/X(q)  e(spline) 
   2     11    12.478    49.363    0.45E-03    0.34E-03    0.89E-06
   2     11    12.478    47.669    0.44E-03    0.33E-03    0.87E-06
   0     12    12.478    26.374    0.17E-03    0.37E-04    0.21E-05
   0     12    12.478    11.549    0.13E-03    0.31E-04    0.17E-05
   1     11    12.478     9.492    0.91E-05    0.64E-04    0.34E-06
 Optimization of the real space projectors (new method)

 maximal supplied QI-value         = 24.76
 optimisation between [QCUT,QGAM] = [ 12.38, 25.00] = [ 42.90,175.06] Ry 
 Optimized for a Real-space Cutoff    1.13 Angstroem

   l    n(q)    QCUT    max X(q) W(low)/X(q) W(high)/X(q)  e(spline) 
   0      8    12.378    20.381    0.16E-03    0.54E-05    0.27E-06
   0      8    12.378    15.268    0.17E-03    0.61E-05    0.29E-06
   1      8    12.378     5.964    0.38E-03    0.23E-03    0.28E-06
   1      8    12.378     5.382    0.33E-03    0.20E-03    0.25E-06
 Optimization of the real space projectors (new method)

 maximal supplied QI-value         = 18.33
 optimisation between [QCUT,QGAM] = [ 12.46, 24.93] = [ 43.51,174.03] Ry 
 Optimized for a Real-space Cutoff    1.13 Angstroem

   l    n(q)    QCUT    max X(q) W(low)/X(q) W(high)/X(q)  e(spline) 
   0      8    12.465    33.825    0.12E-03    0.29E-03    0.99E-07
   0      8    12.465     8.944    0.86E-04    0.22E-03    0.72E-07
   1      8    12.465     4.214    0.27E-03    0.11E-03    0.82E-07
  PAW_PBE Ti 08Apr2002                  :
 energy of atom  1       EATOM=  -94.7928
 kinetic energy error for atom=    0.0001 (will be added to EATOM!!)
  PAW_PBE O 08Apr2002                   :
 energy of atom  2       EATOM= -432.3788
 kinetic energy error for atom=    0.0168 (will be added to EATOM!!)
  PAW_PBE Li 17Jan2003                  :
 energy of atom  3       EATOM=   -5.3001
 kinetic energy error for atom=    0.0000 (will be added to EATOM!!)
 
 
 POSCAR: Ti  O Li                                
  positions in cartesian coordinates
  No initial velocities read in
 exchange correlation table for  LEXCH =        8
   RHO(1)=    0.500       N(1)  =     2000
   RHO(2)=  100.500       N(2)  =     4000

 VTST: version 3.1, (03/28/14)

 CHAIN: initializing optimizer
 
 OPT: Using VASP Conjugate-Gradient optimizer
 CHAIN: Read ICHAIN            0
 
 POSCAR: Ti  O Li                                
  positions in cartesian coordinates
  No initial velocities read in
 


--------------------------------------------------------------------------------------------------------


 ion  position               nearest neighbor table
   1  0.501  0.502  0.484-  12 1.92   7 2.02   7 2.02   5 2.05   5 2.05   6 2.12   4 2.89   4 2.89
                            14 2.91  14 2.91   2 3.09   2 3.09
   2  0.502  1.000  0.744-   7 1.99   6 2.00   6 2.00   9 2.05   8 2.07   8 2.08  14 2.87  14 2.87
                            14 2.87  14 2.87   1 3.09   1 3.09   3 3.12   3 3.12
   3  0.002  0.998  0.001-  10 1.95  11 1.99  11 1.99   8 2.04   9 2.07   9 2.07  13 2.88  13 2.88
                            13 2.88  13 2.88   4 3.10   4 3.10   2 3.12   2 3.12
   4  0.002  0.497  0.262-  10 2.03  10 2.03  12 2.05  12 2.06   5 2.06  11 2.20  13 2.89  13 2.89
                             1 2.89   1 2.89   3 3.10   3 3.10
   5  0.002  0.501  0.486-  14 2.04   1 2.05   1 2.05   4 2.06
   6  0.502  0.500  0.716-   2 2.00   2 2.00  14 2.05  14 2.05   1 2.12
   7  0.502  0.001  0.527-   2 1.99   1 2.02   1 2.02
   8  0.002  1.000  0.778-   3 2.04   2 2.07   2 2.08  14 2.08  14 2.08
   9  0.502  0.998  0.968-   2 2.05   3 2.07   3 2.07  13 2.09  13 2.09
  10  0.002  0.997  0.214-   3 1.95   4 2.03   4 2.03
  11  0.002  0.498  0.021-   3 1.99   3 1.99  13 2.06  13 2.06   4 2.20
  12  0.502  0.499  0.274-   1 1.92   4 2.05   4 2.06  13 2.15
  13  0.502  0.498  0.039-  11 2.06  11 2.06   9 2.09   9 2.09  12 2.15   3 2.88   3 2.88   3 2.88
                             3 2.88   4 2.89   4 2.89
  14  0.002  0.500  0.710-   5 2.04   6 2.05   6 2.05   8 2.08   8 2.08   2 2.87   2 2.87   2 2.87
                             2 2.87   1 2.91   1 2.91
 
  LATTYP: Found a simple monoclinic cell.
 ALAT       =     9.1480821516
 B/A-ratio  =     0.4485264964
 C/A-ratio  =     2.0458416787
 COS(beta)  =    -0.9772464807
  
  Lattice vectors:
  
 A1 = (   0.0016440415,  -0.0081769362,  -9.1480783494)
 A2 = (   4.1031571644,   0.0000875378,   0.0007644107)
 A3 = (  -0.0034376282,  -3.9533419749,  18.2932242709)


Analysis of symmetry for initial positions (statically):
=====================================================================
 Subroutine PRICEL returns:
 Original cell was already a primitive cell.
 

 Routine SETGRP: Setting up the symmetry group for a 
 simple monoclinic supercell.


 Subroutine GETGRP returns: Found  1 space group operations
 (whereof  1 operations were pure point group operations)
 out of a pool of  4 trial point group operations.


The static configuration has the point symmetry C_1 .


Analysis of symmetry for dynamics (positions and initial velocities):
=====================================================================
 Subroutine PRICEL returns:
 Original cell was already a primitive cell.
 

 Routine SETGRP: Setting up the symmetry group for a 
 simple monoclinic supercell.


 Subroutine GETGRP returns: Found  1 space group operations
 (whereof  1 operations were pure point group operations)
 out of a pool of  4 trial point group operations.


The dynamic configuration has the point symmetry C_1 .


Analysis of structural, dynamic, and magnetic symmetry:
=====================================================================
 Subroutine PRICEL returns:
 Original cell was already a primitive cell.
 

 Routine SETGRP: Setting up the symmetry group for a 
 simple monoclinic supercell.


 Subroutine GETGRP returns: Found  1 space group operations
 (whereof  1 operations were pure point group operations)
 out of a pool of  4 trial point group operations.


The magnetic configuration has the point symmetry C_1 .


 Subroutine INISYM returns: Found  1 space group operations
 (whereof  1 operations are pure point group operations),
 and found     1 'primitive' translations

 
 
 KPOINTS: KPOINTS created by Atomic Simulation Env

Automatic generation of k-mesh.
Space group operators:
 irot       det(A)        alpha          n_x          n_y          n_z        tau_x        tau_y        tau_z
    1     1.000000     0.000001     1.000000     0.000000     0.000000     0.000000     0.000000     0.000000
 
 Subroutine IBZKPT returns following result:
 ===========================================
 
 Found     40 irreducible k-points:
 
 Following reciprocal coordinates:
            Coordinates               Weight
  0.000000  0.000000  0.000000      1.000000
  0.166667  0.000000  0.000000      2.000000
  0.333333  0.000000  0.000000      2.000000
  0.500000  0.000000  0.000000      1.000000
 -0.000000  0.166667 -0.000000      2.000000
  0.166667  0.166667 -0.000000      2.000000
  0.333333  0.166667 -0.000000      2.000000
  0.500000  0.166667 -0.000000      2.000000
 -0.333333  0.166667 -0.000000      2.000000
 -0.166667  0.166667 -0.000000      2.000000
 -0.000000  0.333333  0.000000      2.000000
  0.166667  0.333333 -0.000000      2.000000
  0.333333  0.333333 -0.000000      2.000000
  0.500000  0.333333  0.000000      2.000000
 -0.333333  0.333333  0.000000      2.000000
 -0.166667  0.333333  0.000000      2.000000
 -0.000000  0.500000  0.000000      1.000000
  0.166667  0.500000  0.000000      2.000000
  0.333333  0.500000 -0.000000      2.000000
  0.500000  0.500000  0.000000      1.000000
 -0.000000  0.000000  0.500000      1.000000
  0.166667  0.000000  0.500000      2.000000
  0.333333  0.000000  0.500000      2.000000
  0.500000  0.000000  0.500000      1.000000
 -0.000000  0.166667  0.500000      2.000000
  0.166667  0.166667  0.500000      2.000000
  0.333333  0.166667  0.500000      2.000000
  0.500000  0.166667  0.500000      2.000000
 -0.333333  0.166667  0.500000      2.000000
 -0.166667  0.166667  0.500000      2.000000
 -0.000000  0.333333  0.500000      2.000000
  0.166667  0.333333  0.500000      2.000000
  0.333333  0.333333  0.500000      2.000000
  0.500000  0.333333  0.500000      2.000000
 -0.333333  0.333333  0.500000      2.000000
 -0.166667  0.333333  0.500000      2.000000
  0.000000  0.500000  0.500000      1.000000
  0.166667  0.500000  0.500000      2.000000
  0.333333  0.500000  0.500000      2.000000
  0.500000  0.500000  0.500000      1.000000
 
 Following cartesian coordinates:
            Coordinates               Weight
  0.000000  0.000000  0.000000      1.000000
  0.040619 -0.000002  0.000007      2.000000
  0.081238 -0.000003  0.000015      2.000000
  0.121857 -0.000005  0.000022      1.000000
 -0.000001  0.041985 -0.000038      2.000000
  0.040618  0.041983 -0.000030      2.000000
  0.081237  0.041982 -0.000023      2.000000
  0.121856  0.041980 -0.000016      2.000000
 -0.081239  0.041988 -0.000052      2.000000
 -0.040620  0.041986 -0.000045      2.000000
 -0.000002  0.083970 -0.000075      2.000000
  0.040617  0.083968 -0.000068      2.000000
  0.081236  0.083966 -0.000060      2.000000
  0.121856  0.083965 -0.000053      2.000000
 -0.081240  0.083973 -0.000090      2.000000
 -0.040621  0.083971 -0.000082      2.000000
 -0.000003  0.125954 -0.000113      1.000000
  0.040616  0.125953 -0.000105      2.000000
  0.081236  0.125951 -0.000098      2.000000
  0.121855  0.125950 -0.000091      1.000000
 -0.000010 -0.000040  0.054656      1.000000
  0.040609 -0.000042  0.054664      2.000000
  0.081228 -0.000043  0.054671      2.000000
  0.121847 -0.000045  0.054678      1.000000
 -0.000011  0.041944  0.054619      2.000000
  0.040608  0.041943  0.054626      2.000000
  0.081227  0.041941  0.054633      2.000000
  0.121846  0.041940  0.054641      2.000000
 -0.081249  0.041947  0.054604      2.000000
 -0.040630  0.041946  0.054611      2.000000
 -0.000012  0.083929  0.054581      2.000000
  0.040607  0.083928  0.054589      2.000000
  0.081226  0.083926  0.054596      2.000000
  0.121845  0.083925  0.054603      2.000000
 -0.081250  0.083932  0.054567      2.000000
 -0.040631  0.083931  0.054574      2.000000
 -0.000013  0.125914  0.054544      1.000000
  0.040606  0.125912  0.054551      2.000000
  0.081225  0.125911  0.054558      2.000000
  0.121845  0.125909  0.054566      1.000000
 


--------------------------------------------------------------------------------------------------------




 Dimension of arrays:
   k-points           NKPTS =     40   k-points in BZ     NKDIM =     40   number of bands    NBANDS=     48
   number of dos      NEDOS =    301   number of ions     NIONS =     14
   non local maximal  LDIM  =      5   non local SUM 2l+1 LMDIM =     15
   total plane-waves  NPLWV =  37632
   max r-space proj   IRMAX =   4068   max aug-charges    IRDMAX=  17640
   dimension x,y,z NGX =    28 NGY =   24 NGZ =   56
   dimension x,y,z NGXF=    56 NGYF=   48 NGZF=  112
   support grid    NGXF=    56 NGYF=   48 NGZF=  112
   ions per type =               4   8   2
 NGX,Y,Z   is equivalent  to a cutoff of  11.34, 10.05, 10.18 a.u.
 NGXF,Y,Z  is equivalent  to a cutoff of  22.69, 20.10, 20.35 a.u.


 I would recommend the setting:
   dimension x,y,z NGX =    25 NGY =   24 NGZ =   55
 SYSTEM =  unknown system                          
 POSCAR =  Ti  O Li                                

 Startparameter for this run:
   NWRITE =      2    write-flag & timer
   PREC   = normal    normal or accurate (medium, high low for compatibility)
   ISTART =      0    job   : 0-new  1-cont  2-samecut
   ICHARG =      2    charge: 1-file 2-atom 10-const
   ISPIN  =      2    spin polarized calculation?
   LNONCOLLINEAR =      F non collinear calculations
   LSORBIT =      F    spin-orbit coupling
   INIWAV =      1    electr: 0-lowe 1-rand  2-diag
   LASPH  =      F    aspherical Exc in radial PAW
   METAGGA=      F    non-selfconsistent MetaGGA calc.

 Electronic Relaxation 1
   ENCUT  =  600.0 eV  44.10 Ry    6.64 a.u.   8.20  7.93 18.27*2*pi/ulx,y,z
   ENINI  =  600.0     initial cutoff
   ENAUG  =  605.4 eV  augmentation charge cutoff
   NELM   =    500;   NELMIN=  2; NELMDL=  0     # of ELM steps 
   EDIFF  = 0.1E-05   stopping-criterion for ELM
   LREAL  =      T    real-space projection
   NLSPLINE    = F    spline interpolate recip. space projectors
   LCOMPAT=      F    compatible to vasp.4.4
   GGA_COMPAT  = T    GGA compatible to vasp.4.4-vasp.4.6
   LMAXPAW     = -100 max onsite density
   LMAXMIX     =    4 max onsite mixed and CHGCAR
   VOSKOWN=      0    Vosko Wilk Nusair interpolation
   ROPT   =   -0.00050  -0.00050  -0.00050
 Ionic relaxation
   EDIFFG = -.1E-01   stopping-criterion for IOM
   NSW    =    500    number of steps for IOM
   NBLOCK =      1;   KBLOCK =    500    inner block; outer block 
   IBRION =      2    ionic relax: 0-MD 1-quasi-New 2-CG
   NFREE  =      1    steps in history (QN), initial steepest desc. (CG)
   ISIF   =      3    stress and relaxation
   IWAVPR =     11    prediction:  0-non 1-charg 2-wave 3-comb
   ISYM   =      2    0-nonsym 1-usesym 2-fastsym
   LCORR  =      T    Harris-Foulkes like correction to forces

   POTIM  = 0.5000    time-step for ionic-motion
   TEIN   =    0.0    initial temperature
   TEBEG  =    0.0;   TEEND  =   0.0 temperature during run
   SMASS  =  -3.00    Nose mass-parameter (am)
   estimated Nose-frequenzy (Omega)   =  0.10E-29 period in steps =****** mass=  -0.385E-27a.u.
   SCALEE = 1.0000    scale energy and forces
   NPACO  =    256;   APACO  = 16.0  distance and # of slots for P.C.
   PSTRESS=    0.0 pullay stress

  Mass of Ions in am
   POMASS =  47.88 16.00  7.01
  Ionic Valenz
   ZVAL   =   4.00  6.00  1.00
  Atomic Wigner-Seitz radii
   RWIGS  =  -1.00 -1.00 -1.00
  virtual crystal weights 
   VCA    =   1.00  1.00  1.00
   NELECT =      66.0000    total number of electrons
   NUPDOWN=      -1.0000    fix difference up-down

 DOS related values:
   EMIN   =  10.00;   EMAX   =-10.00  energy-range for DOS
   EFERMI =   0.00
   ISMEAR =     0;   SIGMA  =   0.03  broadening in eV -4-tet -1-fermi 0-gaus

 Electronic relaxation 2 (details)
   IALGO  =     48    algorithm
   LDIAG  =      T    sub-space diagonalisation (order eigenvalues)
   LSUBROT=      F    optimize rotation matrix (better conditioning)
   TURBO    =      0    0=normal 1=particle mesh
   IRESTART =      0    0=no restart 2=restart with 2 vectors
   NREBOOT  =      0    no. of reboots
   NMIN     =      0    reboot dimension
   EREF     =   0.00    reference energy to select bands
   IMIX   =      4    mixing-type and parameters
     AMIX     =   0.40;   BMIX     =  1.00
     AMIX_MAG =   1.60;   BMIX_MAG =  1.00
     AMIN     =   0.01
     WC   =   100.;   INIMIX=   1;  MIXPRE=   1;  MAXMIX= -45

 Intra band minimization:
   WEIMIN = 0.0010     energy-eigenvalue tresh-hold
   EBREAK =  0.52E-08  absolut break condition
   DEPER  =   0.30     relativ break condition  

   TIME   =   0.40     timestep for ELM

  volume/ion in A,a.u.               =      10.64        71.82
  Fermi-wavevector in a.u.,A,eV,Ry     =   1.247923  2.358233 21.188516  1.557312
  Thomas-Fermi vector in A             =   2.382033
 
 Write flags
   LWAVE  =      F    write WAVECAR
   LCHARG =      F    write CHGCAR
   LVTOT  =      F    write LOCPOT, total local potential
   LVHAR  =      F    write LOCPOT, Hartree potential only
   LELF   =      F    write electronic localiz. function (ELF)
   LORBIT =      0    0 simple, 1 ext, 2 COOP (PROOUT)


 Dipole corrections
   LMONO  =      F    monopole corrections only (constant potential shift)
   LDIPOL =      F    correct potential (dipole corrections)
   IDIPOL =      0    1-x, 2-y, 3-z, 4-all directions 
   EPSILON=  1.0000000 bulk dielectric constant

 LDA+U is selected, type is set to LDAUTYPE =  2
   angular momentum for each species LDAUL =     2   -1   -1
   U (eV)           for each species LDAUU =   3.5  0.0  0.0
   J (eV)           for each species LDAUJ =   0.0  0.0  0.0
 Exchange correlation treatment:
   GGA     =    PE    GGA type
   LEXCH   =     8    internal setting for exchange type
   VOSKOWN=      0    Vosko Wilk Nusair interpolation
   LHFCALC =     F    Hartree Fock is set to
   LHFONE  =     F    Hartree Fock one center treatment
   AEXX    =    0.0000 exact exchange contribution

 Linear response parameters
   LEPSILON=     F    determine dielectric tensor
   LRPA    =     F    only Hartree local field effects (RPA)
   LNABLA  =     F    use nabla operator in PAW spheres
   LVEL    =     F    velocity operator in full k-point grid
   LINTERFAST=   F  fast interpolation
   KINTER  =     0    interpolate to denser k-point grid
   CSHIFT  =0.1000    complex shift for real part using Kramers Kronig
   OMEGAMAX=  -1.0    maximum frequency
   DEG_THRESHOLD= 0.2000000E-02 threshold for treating states as degnerate
   RTIME   =    0.100 relaxation time in fs

 Orbital magnetization related:
   ORBITALMAG=     F  switch on orbital magnetization
   LCHIMAG   =     F  perturbation theory with respect to B field
   DQ        =  0.001000  dq finite difference perturbation B field



--------------------------------------------------------------------------------------------------------


 conjugate gradient relaxation of ions
 charge density and potential will be updated during run
 spin polarized calculation
 RMM-DIIS sequential band-by-band
 perform sub-space diagonalisation
    before iterative eigenvector-optimisation
 modified Broyden-mixing scheme, WC =      100.0
 initial mixing is a Kerker type mixing with AMIX =  0.4000 and BMIX =      1.0000
 Hartree-type preconditioning will be used
 using additional bands           15
 real space projection scheme for non local part
 use partial core corrections
 calculate Harris-corrections to forces 
   (improved forces if not selfconsistent)
 use gradient corrections 
 use of overlap-Matrix (Vanderbilt PP)
 Gauss-broadening in eV      SIGMA  =   0.03


--------------------------------------------------------------------------------------------------------


  energy-cutoff  :      600.00
  volume of cell :      149.01
      direct lattice vectors                 reciprocal lattice vectors
     4.103157164  0.000087538  0.000764411     0.243714761 -0.000009214  0.000043807
     0.000149545  3.969695847  0.002932428    -0.000005332  0.251908635 -0.000225167
    -0.001644042  0.008176936  9.148078349    -0.000020363 -0.000080749  0.109312643

  length of vectors
     4.103157237  3.969696933  9.148082152     0.243714765  0.251908735  0.109312675


 
 k-points in units of 2pi/SCALE and weight: KPOINTS created by Atomic Simulation Env
   0.00000000  0.00000000  0.00000000       0.014
   0.04061913 -0.00000154  0.00000730       0.028
   0.08123825 -0.00000307  0.00001460       0.028
   0.12185738 -0.00000461  0.00002190       0.014
  -0.00000089  0.04198477 -0.00003753       0.028
   0.04061824  0.04198324 -0.00003023       0.028
   0.08123736  0.04198170 -0.00002293       0.028
   0.12185649  0.04198017 -0.00001562       0.028
  -0.08123914  0.04198784 -0.00005213       0.028
  -0.04062002  0.04198631 -0.00004483       0.028
  -0.00000178  0.08396954 -0.00007506       0.028
   0.04061735  0.08396801 -0.00006775       0.028
   0.08123648  0.08396647 -0.00006045       0.028
   0.12185560  0.08396494 -0.00005315       0.028
  -0.08124003  0.08397262 -0.00008966       0.028
  -0.04062090  0.08397108 -0.00008236       0.028
  -0.00000267  0.12595432 -0.00011258       0.014
   0.04061646  0.12595278 -0.00010528       0.028
   0.08123559  0.12595125 -0.00009798       0.028
   0.12185471  0.12594971 -0.00009068       0.014
  -0.00001018 -0.00004037  0.05465632       0.014
   0.04060895 -0.00004191  0.05466362       0.028
   0.08122807 -0.00004345  0.05467092       0.028
   0.12184720 -0.00004498  0.05467823       0.014
  -0.00001107  0.04194440  0.05461879       0.028
   0.04060806  0.04194286  0.05462610       0.028
   0.08122718  0.04194133  0.05463340       0.028
   0.12184631  0.04193979  0.05464070       0.028
  -0.08124932  0.04194747  0.05460419       0.028
  -0.04063020  0.04194593  0.05461149       0.028
  -0.00001196  0.08392917  0.05458127       0.028
   0.04060717  0.08392763  0.05458857       0.028
   0.08122629  0.08392610  0.05459587       0.028
   0.12184542  0.08392456  0.05460317       0.028
  -0.08125021  0.08393224  0.05456666       0.028
  -0.04063109  0.08393071  0.05457396       0.028
  -0.00001285  0.12591394  0.05454374       0.014
   0.04060628  0.12591241  0.05455104       0.028
   0.08122541  0.12591087  0.05455834       0.028
   0.12184453  0.12590934  0.05456564       0.014
 
 k-points in reciprocal lattice and weights: KPOINTS created by Atomic Simulation Env
   0.00000000  0.00000000  0.00000000       0.014
   0.16666667  0.00000000  0.00000000       0.028
   0.33333333  0.00000000  0.00000000       0.028
   0.50000000  0.00000000  0.00000000       0.014
  -0.00000000  0.16666667 -0.00000000       0.028
   0.16666667  0.16666667 -0.00000000       0.028
   0.33333333  0.16666667 -0.00000000       0.028
   0.50000000  0.16666667 -0.00000000       0.028
  -0.33333333  0.16666667 -0.00000000       0.028
  -0.16666667  0.16666667 -0.00000000       0.028
  -0.00000000  0.33333333  0.00000000       0.028
   0.16666667  0.33333333 -0.00000000       0.028
   0.33333333  0.33333333 -0.00000000       0.028
   0.50000000  0.33333333  0.00000000       0.028
  -0.33333333  0.33333333  0.00000000       0.028
  -0.16666667  0.33333333  0.00000000       0.028
  -0.00000000  0.50000000  0.00000000       0.014
   0.16666667  0.50000000  0.00000000       0.028
   0.33333333  0.50000000 -0.00000000       0.028
   0.50000000  0.50000000  0.00000000       0.014
  -0.00000000  0.00000000  0.50000000       0.014
   0.16666667  0.00000000  0.50000000       0.028
   0.33333333  0.00000000  0.50000000       0.028
   0.50000000  0.00000000  0.50000000       0.014
  -0.00000000  0.16666667  0.50000000       0.028
   0.16666667  0.16666667  0.50000000       0.028
   0.33333333  0.16666667  0.50000000       0.028
   0.50000000  0.16666667  0.50000000       0.028
  -0.33333333  0.16666667  0.50000000       0.028
  -0.16666667  0.16666667  0.50000000       0.028
  -0.00000000  0.33333333  0.50000000       0.028
   0.16666667  0.33333333  0.50000000       0.028
   0.33333333  0.33333333  0.50000000       0.028
   0.50000000  0.33333333  0.50000000       0.028
  -0.33333333  0.33333333  0.50000000       0.028
  -0.16666667  0.33333333  0.50000000       0.028
   0.00000000  0.50000000  0.50000000       0.014
   0.16666667  0.50000000  0.50000000       0.028
   0.33333333  0.50000000  0.50000000       0.028
   0.50000000  0.50000000  0.50000000       0.014
 
 position of ions in fractional coordinates (direct lattice) 
   0.50148652  0.50157228  0.48448372
   0.50165626  0.99992477  0.74382390
   0.00187417  0.99766094  0.00066272
   0.00151383  0.49663406  0.26150460
   0.00171962  0.50057842  0.48647860
   0.50163185  0.50006051  0.71590100
   0.50176165  0.00076900  0.52656565
   0.00182197  0.99955713  0.77756774
   0.50179280  0.99810777  0.96814294
   0.00169939  0.99737909  0.21356366
   0.00174673  0.49770752  0.02101108
   0.50156298  0.49887077  0.27427515
   0.50194003  0.49771124  0.03891491
   0.00175603  0.50004087  0.70997679
 
 position of ions in cartesian coordinates  (Angst):
   2.05695650  1.99509488  4.43394921
   2.05730115  3.97552331  6.80787499
   0.00783811  3.96041609  0.00898966
   0.00585583  1.97362459  2.39372204
   0.00633092  1.99112212  4.45181359
   2.05717214  1.99098590  6.55096826
   2.05794131  0.00740232  4.81744961
   0.00634696  3.97429606  7.11618317
   2.05749232  3.97014462  8.85995790
   0.00677089  3.96103807  1.95662310
   0.00720701  1.97591942  0.19367185
   2.05761544  1.98265187  2.51093683
   2.05954930  1.97612437  0.35783985
   0.00611281  1.99081576  6.49639096
 


--------------------------------------------------------------------------------------------------------


 k-point  1 :   0.0000 0.0000 0.0000  plane waves:    4975
 k-point  2 :   0.1667 0.0000 0.0000  plane waves:    4957
 k-point  3 :   0.3333 0.0000 0.0000  plane waves:    4966
 k-point  4 :   0.5000 0.0000 0.0000  plane waves:    4948
 k-point  5 :  -0.0000 0.1667-0.0000  plane waves:    4977
 k-point  6 :   0.1667 0.1667-0.0000  plane waves:    4966
 k-point  7 :   0.3333 0.1667-0.0000  plane waves:    4966
 k-point  8 :   0.5000 0.1667-0.0000  plane waves:    4965
 k-point  9 :  -0.3333 0.1667-0.0000  plane waves:    4966
 k-point 10 :  -0.1667 0.1667-0.0000  plane waves:    4967
 k-point 11 :  -0.0000 0.3333 0.0000  plane waves:    4965
 k-point 12 :   0.1667 0.3333-0.0000  plane waves:    4965
 k-point 13 :   0.3333 0.3333-0.0000  plane waves:    4984
 k-point 14 :   0.5000 0.3333 0.0000  plane waves:    5008
 k-point 15 :  -0.3333 0.3333 0.0000  plane waves:    4984
 k-point 16 :  -0.1667 0.3333 0.0000  plane waves:    4964
 k-point 17 :  -0.0000 0.5000 0.0000  plane waves:    4968
 k-point 18 :   0.1667 0.5000 0.0000  plane waves:    4978
 k-point 19 :   0.3333 0.5000-0.0000  plane waves:    4994
 k-point 20 :   0.5000 0.5000 0.0000  plane waves:    4992
 k-point 21 :  -0.0000 0.0000 0.5000  plane waves:    4956
 k-point 22 :   0.1667 0.0000 0.5000  plane waves:    4978
 k-point 23 :   0.3333 0.0000 0.5000  plane waves:    4964
 k-point 24 :   0.5000 0.0000 0.5000  plane waves:    4984
 k-point 25 :  -0.0000 0.1667 0.5000  plane waves:    4968
 k-point 26 :   0.1667 0.1667 0.5000  plane waves:    4980
 k-point 27 :   0.3333 0.1667 0.5000  plane waves:    4968
 k-point 28 :   0.5000 0.1667 0.5000  plane waves:    4946
 k-point 29 :  -0.3333 0.1667 0.5000  plane waves:    4968
 k-point 30 :  -0.1667 0.1667 0.5000  plane waves:    4980
 k-point 31 :  -0.0000 0.3333 0.5000  plane waves:    4975
 k-point 32 :   0.1667 0.3333 0.5000  plane waves:    4979
 k-point 33 :   0.3333 0.3333 0.5000  plane waves:    4976
 k-point 34 :   0.5000 0.3333 0.5000  plane waves:    4974
 k-point 35 :  -0.3333 0.3333 0.5000  plane waves:    4977
 k-point 36 :  -0.1667 0.3333 0.5000  plane waves:    4979
 k-point 37 :   0.0000 0.5000 0.5000  plane waves:    4952
 k-point 38 :   0.1667 0.5000 0.5000  plane waves:    4966
 k-point 39 :   0.3333 0.5000 0.5000  plane waves:    4988
 k-point 40 :   0.5000 0.5000 0.5000  plane waves:    4992

 maximum and minimum number of plane-waves per node :       640      598

 maximum number of plane-waves:      5008
 maximum index in each direction: 
   IXMAX=    8   IYMAX=    7   IZMAX=   18
   IXMIN=   -8   IYMIN=   -8   IZMIN=  -18

 WARNING: aliasing errors must be expected set NGX to  34 to avoid them
 WARNING: aliasing errors must be expected set NGY to  32 to avoid them
 WARNING: aliasing errors must be expected set NGZ to  74 to avoid them
 aliasing errors are usually negligible using standard VASP settings
 and one can safely disregard these warnings

 real space projection operators:
  total allocation   :       2682.45 KBytes
  max/ min on nodes  :        389.82        281.56


 parallel 3D FFT for wavefunctions:
    minimum data exchange during FFTs selected (reduces bandwidth)
 parallel 3D FFT for charge:
    minimum data exchange during FFTs selected (reduces bandwidth)


 total amount of memory used by VASP on root node    54551. kBytes
========================================================================

   base      :      30000. kBytes
   nonlr-proj:       1442. kBytes
   fftplans  :        868. kBytes
   grid      :       2353. kBytes
   one-center:         43. kBytes
   wavefun   :      19845. kBytes
 
     INWAV:  cpu time    0.0000: real time    0.0000
 Broyden mixing: mesh for mixing (old mesh)
   NGX = 17   NGY = 15   NGZ = 37
  (NGX  = 56   NGY  = 48   NGZ  =112)
  gives a total of   9435 points

 initial charge density was supplied:
 charge density of overlapping atoms calculated
 number of electron      66.0000000 magnetization      14.0000000
 keeping initial charge density in first step


--------------------------------------------------------------------------------------------------------


 Maximum index for non-local projection operator          640
 Maximum index for augmentation-charges         1422 (set IRDMAX)


--------------------------------------------------------------------------------------------------------


 First call to EWALD:  gamma=   0.334
 Maximum number of real-space cells 3x 4x 2
 Maximum number of reciprocal cells 2x 2x 4

 FEWALD executed in parallel
    FEWALD:  cpu time    0.0014: real time    0.0014


----------------------------------------- Iteration    1(   1)  ---------------------------------------


    POTLOK:  cpu time    0.0206: real time    0.0208
    SETDIJ:  cpu time    0.0058: real time    0.0058
    EDDIAG:  cpu time    0.4411: real time    0.4446
  RMM-DIIS:  cpu time    0.6291: real time    0.6328
    ORTHCH:  cpu time    0.0754: real time    0.0760
       DOS:  cpu time    0.0052: real time    0.0052
    --------------------------------------------
      LOOP:  cpu time    1.1791: real time    1.1880

 eigenvalue-minimisations  :  3840
 total energy-change (2. order) : 0.8548571E+03  (-0.2520343E+04)
 number of electron      66.0000000 magnetization      14.0000000
 augmentation part       66.0000000 magnetization      14.0000000

 Free energy of the ion-electron system (eV)
  ---------------------------------------------------
  alpha Z        PSCENC =       240.48516418
  Ewald energy   TEWEN  =     -2995.29345967
  -Hartree energ DENC   =     -1015.16641688
  -exchange      EXHF   =         0.00000000
  -V(xc)+E(xc)   XCENC  =        66.88659820
  PAW double counting   =      3287.94238800    -3124.88135687
  entropy T*S    EENTRO =        -0.00148679
  eigenvalues    EBANDS =       546.21881182
  atomic energy  EATOM  =      3848.66684065
  Solvation  Ediel_sol  =         0.00000000
  ---------------------------------------------------
  free energy    TOTEN  =       854.85708265 eV

  energy without entropy =      854.85856944  energy(sigma->0) =      854.85782605


--------------------------------------------------------------------------------------------------------




----------------------------------------- Iteration    1(   2)  ---------------------------------------


    EDDIAG:  cpu time    0.4244: real time    0.4272
  RMM-DIIS:  cpu time    0.6005: real time    0.6036
    ORTHCH:  cpu time    0.0769: real time    0.0777
       DOS:  cpu time    0.0051: real time    0.0052
    --------------------------------------------
      LOOP:  cpu time    1.1080: real time    1.1179

 eigenvalue-minimisations  :  3840
 total energy-change (2. order) :-0.5712291E+03  (-0.5627180E+03)
 number of electron      66.0000000 magnetization      14.0000000
 augmentation part       66.0000000 magnetization      14.0000000

 Free energy of the ion-electron system (eV)
  ---------------------------------------------------
  alpha Z        PSCENC =       240.48516418
  Ewald energy   TEWEN  =     -2995.29345967
  -Hartree energ DENC   =     -1015.16641688
  -exchange      EXHF   =         0.00000000
  -V(xc)+E(xc)   XCENC  =        66.88659820
  PAW double counting   =      3287.94238800    -3124.88135687
  entropy T*S    EENTRO =        -0.00268610
  eigenvalues    EBANDS =       -25.00911744
  atomic energy  EATOM  =      3848.66684065
  Solvation  Ediel_sol  =         0.00000000
  ---------------------------------------------------
  free energy    TOTEN  =       283.62795407 eV

  energy without entropy =      283.63064018  energy(sigma->0) =      283.62929712


--------------------------------------------------------------------------------------------------------




----------------------------------------- Iteration    1(   3)  ---------------------------------------


    EDDIAG:  cpu time    0.4216: real time    0.4244
  RMM-DIIS:  cpu time    0.5992: real time    0.6023
    ORTHCH:  cpu time    0.0754: real time    0.0759
       DOS:  cpu time    0.0049: real time    0.0050
    --------------------------------------------
      LOOP:  cpu time    1.1023: real time    1.1117

 eigenvalue-minimisations  :  3840
 total energy-change (2. order) :-0.2098752E+03  (-0.2017444E+03)
 number of electron      66.0000000 magnetization      14.0000000
 augmentation part       66.0000000 magnetization      14.0000000

 Free energy of the ion-electron system (eV)
  ---------------------------------------------------
  alpha Z        PSCENC =       240.48516418
  Ewald energy   TEWEN  =     -2995.29345967
  -Hartree energ DENC   =     -1015.16641688
  -exchange      EXHF   =         0.00000000
  -V(xc)+E(xc)   XCENC  =        66.88659820
  PAW double counting   =      3287.94238800    -3124.88135687
  entropy T*S    EENTRO =        -0.00392685
  eigenvalues    EBANDS =      -234.88307395
  atomic energy  EATOM  =      3848.66684065
  Solvation  Ediel_sol  =         0.00000000
  ---------------------------------------------------
  free energy    TOTEN  =        73.75275682 eV

  energy without entropy =       73.75668367  energy(sigma->0) =       73.75472025


--------------------------------------------------------------------------------------------------------




----------------------------------------- Iteration    1(   4)  ---------------------------------------


    EDDIAG:  cpu time    0.4104: real time    0.4130
  RMM-DIIS:  cpu time    0.5997: real time    0.6027
    ORTHCH:  cpu time    0.0759: real time    0.0765
       DOS:  cpu time    0.0051: real time    0.0052
    --------------------------------------------
      LOOP:  cpu time    1.0924: real time    1.1019

 eigenvalue-minimisations  :  3840
 total energy-change (2. order) :-0.1168647E+03  (-0.8719915E+02)
 number of electron      66.0000000 magnetization      14.0000000
 augmentation part       66.0000000 magnetization      14.0000000

 Free energy of the ion-electron system (eV)
  ---------------------------------------------------
  alpha Z        PSCENC =       240.48516418
  Ewald energy   TEWEN  =     -2995.29345967
  -Hartree energ DENC   =     -1015.16641688
  -exchange      EXHF   =         0.00000000
  -V(xc)+E(xc)   XCENC  =        66.88659820
  PAW double counting   =      3287.94238800    -3124.88135687
  entropy T*S    EENTRO =        -0.00246320
  eigenvalues    EBANDS =      -351.74925353
  atomic energy  EATOM  =      3848.66684065
  Solvation  Ediel_sol  =         0.00000000
  ---------------------------------------------------
  free energy    TOTEN  =       -43.11195911 eV

  energy without entropy =      -43.10949591  energy(sigma->0) =      -43.11072751


--------------------------------------------------------------------------------------------------------




----------------------------------------- Iteration    1(   5)  ---------------------------------------


    EDDIAG:  cpu time    0.4104: real time    0.4130
  RMM-DIIS:  cpu time    0.5948: real time    0.5980
    ORTHCH:  cpu time    0.0730: real time    0.0735
       DOS:  cpu time    0.0051: real time    0.0051
    --------------------------------------------
      LOOP:  cpu time    1.0845: real time    1.0939

 eigenvalue-minimisations  :  3840
 total energy-change (2. order) :-0.5189969E+02  (-0.4118639E+02)
 number of electron      66.0000000 magnetization      14.0000000
 augmentation part       66.0000000 magnetization      14.0000000

 Free energy of the ion-electron system (eV)
  ---------------------------------------------------
  alpha Z        PSCENC =       240.48516418
  Ewald energy   TEWEN  =     -2995.29345967
  -Hartree energ DENC   =     -1015.16641688
  -exchange      EXHF   =         0.00000000
  -V(xc)+E(xc)   XCENC  =        66.88659820
  PAW double counting   =      3287.94238800    -3124.88135687
  entropy T*S    EENTRO =        -0.00284401
  eigenvalues    EBANDS =      -403.64856654
  atomic energy  EATOM  =      3848.66684065
  Solvation  Ediel_sol  =         0.00000000
  ---------------------------------------------------
  free energy    TOTEN  =       -95.01165293 eV

  energy without entropy =      -95.00880892  energy(sigma->0) =      -95.01023093


--------------------------------------------------------------------------------------------------------




----------------------------------------- Iteration    1(   6)  ---------------------------------------


    EDDIAG:  cpu time    0.4125: real time    0.4151
  RMM-DIIS:  cpu time    0.5956: real time    0.5986
    ORTHCH:  cpu time    0.0728: real time    0.0734
       DOS:  cpu time    0.0051: real time    0.0051
    --------------------------------------------
      LOOP:  cpu time    1.0872: real time    1.0970

 eigenvalue-minimisations  :  3840
 total energy-change (2. order) :-0.2209972E+02  (-0.1854836E+02)
 number of electron      66.0000000 magnetization      14.0000000
 augmentation part       66.0000000 magnetization      14.0000000

 Free energy of the ion-electron system (eV)
  ---------------------------------------------------
  alpha Z        PSCENC =       240.48516418
  Ewald energy   TEWEN  =     -2995.29345967
  -Hartree energ DENC   =     -1015.16641688
  -exchange      EXHF   =         0.00000000
  -V(xc)+E(xc)   XCENC  =        66.88659820
  PAW double counting   =      3287.94238800    -3124.88135687
  entropy T*S    EENTRO =        -0.00251601
  eigenvalues    EBANDS =      -425.74861072
  atomic energy  EATOM  =      3848.66684065
  Solvation  Ediel_sol  =         0.00000000
  ---------------------------------------------------
  free energy    TOTEN  =      -117.11136911 eV

  energy without entropy =     -117.10885310  energy(sigma->0) =     -117.11011110


--------------------------------------------------------------------------------------------------------




----------------------------------------- Iteration    1(   7)  ---------------------------------------


    EDDIAG:  cpu time    0.4088: real time    0.4115
  RMM-DIIS:  cpu time    0.6021: real time    0.6052
    ORTHCH:  cpu time    0.0731: real time    0.0736
       DOS:  cpu time    0.0048: real time    0.0049
    --------------------------------------------
      LOOP:  cpu time    1.0901: real time    1.0996

 eigenvalue-minimisations  :  3840
 total energy-change (2. order) :-0.7444731E+01  (-0.6628180E+01)
 number of electron      66.0000000 magnetization      14.0000000
 augmentation part       66.0000000 magnetization      14.0000000

 Free energy of the ion-electron system (eV)
  ---------------------------------------------------
  alpha Z        PSCENC =       240.48516418
  Ewald energy   TEWEN  =     -2995.29345967
  -Hartree energ DENC   =     -1015.16641688
  -exchange      EXHF   =         0.00000000
  -V(xc)+E(xc)   XCENC  =        66.88659820
  PAW double counting   =      3287.94238800    -3124.88135687
  entropy T*S    EENTRO =        -0.00177268
  eigenvalues    EBANDS =      -433.19408495
  atomic energy  EATOM  =      3848.66684065
  Solvation  Ediel_sol  =         0.00000000
  ---------------------------------------------------
  free energy    TOTEN  =      -124.55610001 eV

  energy without entropy =     -124.55432734  energy(sigma->0) =     -124.55521367


--------------------------------------------------------------------------------------------------------




----------------------------------------- Iteration    1(   8)  ---------------------------------------


    EDDIAG:  cpu time    0.4092: real time    0.4119
  RMM-DIIS:  cpu time    0.5978: real time    0.6008
    ORTHCH:  cpu time    0.0729: real time    0.0735
       DOS:  cpu time    0.0046: real time    0.0046
    --------------------------------------------
      LOOP:  cpu time    1.0857: real time    1.0949

 eigenvalue-minimisations  :  3840
 total energy-change (2. order) :-0.3163841E+01  (-0.2726113E+01)
 number of electron      66.0000000 magnetization      14.0000000
 augmentation part       66.0000000 magnetization      14.0000000

 Free energy of the ion-electron system (eV)
  ---------------------------------------------------
  alpha Z        PSCENC =       240.48516418
  Ewald energy   TEWEN  =     -2995.29345967
  -Hartree energ DENC   =     -1015.16641688
  -exchange      EXHF   =         0.00000000
  -V(xc)+E(xc)   XCENC  =        66.88659820
  PAW double counting   =      3287.94238800    -3124.88135687
  entropy T*S    EENTRO =        -0.00182931
  eigenvalues    EBANDS =      -436.35786898
  atomic energy  EATOM  =      3848.66684065
  Solvation  Ediel_sol  =         0.00000000
  ---------------------------------------------------
  free energy    TOTEN  =      -127.71994068 eV

  energy without entropy =     -127.71811136  energy(sigma->0) =     -127.71902602


--------------------------------------------------------------------------------------------------------




----------------------------------------- Iteration    1(   9)  ---------------------------------------


    EDDIAG:  cpu time    0.4134: real time    0.4161
  RMM-DIIS:  cpu time    1.4308: real time    1.4391
    ORTHCH:  cpu time    0.0733: real time    0.0738
       DOS:  cpu time    0.0049: real time    0.0049
    --------------------------------------------
      LOOP:  cpu time    1.9237: real time    1.9384

 eigenvalue-minimisations  : 10006
 total energy-change (2. order) :-0.2208703E+01  (-0.2106191E+01)
 number of electron      66.0000000 magnetization      14.0000000
 augmentation part       66.0000000 magnetization      14.0000000

 Free energy of the ion-electron system (eV)
  ---------------------------------------------------
  alpha Z        PSCENC =       240.48516418
  Ewald energy   TEWEN  =     -2995.29345967
  -Hartree energ DENC   =     -1015.16641688
  -exchange      EXHF   =         0.00000000
  -V(xc)+E(xc)   XCENC  =        66.88659820
  PAW double counting   =      3287.94238800    -3124.88135687
  entropy T*S    EENTRO =        -0.00149840
  eigenvalues    EBANDS =      -438.56690271
  atomic energy  EATOM  =      3848.66684065
  Solvation  Ediel_sol  =         0.00000000
  ---------------------------------------------------
  free energy    TOTEN  =      -129.92864349 eV

  energy without entropy =     -129.92714509  energy(sigma->0) =     -129.92789429


--------------------------------------------------------------------------------------------------------




----------------------------------------- Iteration    1(  10)  ---------------------------------------


    EDDIAG:  cpu time    0.4139: real time    0.4166
  RMM-DIIS:  cpu time    1.4850: real time    1.4938
    ORTHCH:  cpu time    0.0744: real time    0.0750
       DOS:  cpu time    0.0052: real time    0.0053
    --------------------------------------------
      LOOP:  cpu time    1.9799: real time    1.9953

 eigenvalue-minimisations  : 10395
 total energy-change (2. order) :-0.1219778E+00  (-0.1246658E+00)
 number of electron      66.0000000 magnetization      14.0000000
 augmentation part       66.0000000 magnetization      14.0000000

 Free energy of the ion-electron system (eV)
  ---------------------------------------------------
  alpha Z        PSCENC =       240.48516418
  Ewald energy   TEWEN  =     -2995.29345967
  -Hartree energ DENC   =     -1015.16641688
  -exchange      EXHF   =         0.00000000
  -V(xc)+E(xc)   XCENC  =        66.88659820
  PAW double counting   =      3287.94238800    -3124.88135687
  entropy T*S    EENTRO =        -0.00172879
  eigenvalues    EBANDS =      -438.68865013
  atomic energy  EATOM  =      3848.66684065
  Solvation  Ediel_sol  =         0.00000000
  ---------------------------------------------------
  free energy    TOTEN  =      -130.05062130 eV

  energy without entropy =     -130.04889251  energy(sigma->0) =     -130.04975691


--------------------------------------------------------------------------------------------------------




----------------------------------------- Iteration    1(  11)  ---------------------------------------


    EDDIAG:  cpu time    0.4354: real time    0.4384
  RMM-DIIS:  cpu time    1.5385: real time    1.5484
    ORTHCH:  cpu time    0.0792: real time    0.0799
       DOS:  cpu time    0.0061: real time    0.0062
    --------------------------------------------
      LOOP:  cpu time    2.0604: real time    2.0775

 eigenvalue-minimisations  : 10234
 total energy-change (2. order) :-0.2687468E-01  (-0.2330868E-01)
 number of electron      66.0000000 magnetization      14.0000000
 augmentation part       66.0000000 magnetization      14.0000000

 Free energy of the ion-electron system (eV)
  ---------------------------------------------------
  alpha Z        PSCENC =       240.48516418
  Ewald energy   TEWEN  =     -2995.29345967
  -Hartree energ DENC   =     -1015.16641688
  -exchange      EXHF   =         0.00000000
  -V(xc)+E(xc)   XCENC  =        66.88659820
  PAW double counting   =      3287.94238800    -3124.88135687
  entropy T*S    EENTRO =        -0.00205325
  eigenvalues    EBANDS =      -438.71520034
  atomic energy  EATOM  =      3848.66684065
  Solvation  Ediel_sol  =         0.00000000
  ---------------------------------------------------
  free energy    TOTEN  =      -130.07749598 eV

  energy without entropy =     -130.07544272  energy(sigma->0) =     -130.07646935


--------------------------------------------------------------------------------------------------------




----------------------------------------- Iteration    1(  12)  ---------------------------------------


    EDDIAG:  cpu time    0.4389: real time    0.4420
  RMM-DIIS:  cpu time    1.3765: real time    1.3852
    ORTHCH:  cpu time    0.0736: real time    0.0742
       DOS:  cpu time    0.0060: real time    0.0060
    CHARGE:  cpu time    0.1054: real time    0.1061
    MIXING:  cpu time    0.0005: real time    0.0005
    --------------------------------------------
      LOOP:  cpu time    2.0021: real time    2.0186

 eigenvalue-minimisations  :  8967
 total energy-change (2. order) :-0.1183838E-01  (-0.9766548E-02)
 number of electron      65.9999877 magnetization       7.8458009
 augmentation part        8.1794969 magnetization       6.6126440

 Broyden mixing:
  rms(total) = 0.52925E+01    rms(broyden)= 0.52924E+01
  rms(prec ) = 0.62931E+01
  weight for this iteration     100.00

 Free energy of the ion-electron system (eV)
  ---------------------------------------------------
  alpha Z        PSCENC =       240.48516418
  Ewald energy   TEWEN  =     -2995.29345967
  -Hartree energ DENC   =     -1015.16641688
  -exchange      EXHF   =         0.00000000
  -V(xc)+E(xc)   XCENC  =        66.88659820
  PAW double counting   =      3287.94238800    -3124.88135687
  entropy T*S    EENTRO =        -0.00194802
  eigenvalues    EBANDS =      -438.72714395
  atomic energy  EATOM  =      3848.66684065
  Solvation  Ediel_sol  =         0.00000000
  ---------------------------------------------------
  free energy    TOTEN  =      -130.08933435 eV

  energy without entropy =     -130.08738633  energy(sigma->0) =     -130.08836034


--------------------------------------------------------------------------------------------------------




----------------------------------------- Iteration    1(  13)  ---------------------------------------


    POTLOK:  cpu time    0.0204: real time    0.0205
    SETDIJ:  cpu time    0.0056: real time    0.0056
    EDDIAG:  cpu time    0.4457: real time    0.4488
  RMM-DIIS:  cpu time    1.1369: real time    1.1440
    ORTHCH:  cpu time    0.0701: real time    0.0707
       DOS:  cpu time    0.0051: real time    0.0051
    CHARGE:  cpu time    0.0902: real time    0.0907
    MIXING:  cpu time    0.0006: real time    0.0007
    --------------------------------------------
      LOOP:  cpu time    1.7761: real time    1.7906

 eigenvalue-minimisations  :  7777
 total energy-change (2. order) : 0.3199064E+02  (-0.1787741E+02)
 number of electron      65.9999919 magnetization       4.9862955
 augmentation part        8.9185469 magnetization       4.0573341

 Broyden mixing:
  rms(total) = 0.21025E+01    rms(broyden)= 0.21021E+01
  rms(prec ) = 0.22364E+01
  weight for this iteration     100.00

 eigenvalues of (default mixing * dielectric matrix)
  average eigenvalue GAMMA=   0.9692
  0.9692

 Free energy of the ion-electron system (eV)
  ---------------------------------------------------
  alpha Z        PSCENC =       240.48516418
  Ewald energy   TEWEN  =     -2995.29345967
  -Hartree energ DENC   =     -1188.11620657
  -exchange      EXHF   =         0.00000000
  -V(xc)+E(xc)   XCENC  =        82.91414762
  PAW double counting   =      4240.59942564    -4079.31645701
  entropy T*S    EENTRO =        -0.00259198
  eigenvalues    EBANDS =      -248.03555977
  atomic energy  EATOM  =      3848.66684065
  Solvation  Ediel_sol  =         0.00000000
  ---------------------------------------------------
  free energy    TOTEN  =       -98.09869691 eV

  energy without entropy =      -98.09610493  energy(sigma->0) =      -98.09740092


--------------------------------------------------------------------------------------------------------




----------------------------------------- Iteration    1(  14)  ---------------------------------------


    POTLOK:  cpu time    0.0178: real time    0.0179
    SETDIJ:  cpu time    0.0052: real time    0.0052
    EDDIAG:  cpu time    0.4247: real time    0.4276
  RMM-DIIS:  cpu time    1.1048: real time    1.1118
    ORTHCH:  cpu time    0.0715: real time    0.0720
       DOS:  cpu time    0.0050: real time    0.0051
    CHARGE:  cpu time    0.0891: real time    0.0896
    MIXING:  cpu time    0.0006: real time    0.0007
    --------------------------------------------
      LOOP:  cpu time    1.7200: real time    1.7342

 eigenvalue-minimisations  :  7699
 total energy-change (2. order) :-0.2009347E+01  (-0.8821371E+00)
 number of electron      65.9999914 magnetization       2.2811706
 augmentation part        8.7931880 magnetization       1.4911775

 Broyden mixing:
  rms(total) = 0.10753E+01    rms(broyden)= 0.10753E+01
  rms(prec ) = 0.11313E+01
  weight for this iteration     100.00

 eigenvalues of (default mixing * dielectric matrix)
  average eigenvalue GAMMA=   1.2317
  0.8706  1.5928

 Free energy of the ion-electron system (eV)
  ---------------------------------------------------
  alpha Z        PSCENC =       240.48516418
  Ewald energy   TEWEN  =     -2995.29345967
  -Hartree energ DENC   =     -1148.44397273
  -exchange      EXHF   =         0.00000000
  -V(xc)+E(xc)   XCENC  =        78.20437747
  PAW double counting   =      4674.52661534    -4512.52108796
  entropy T*S    EENTRO =        -0.00146344
  eigenvalues    EBANDS =      -285.73105763
  atomic energy  EATOM  =      3848.66684065
  Solvation  Ediel_sol  =         0.00000000
  ---------------------------------------------------
  free energy    TOTEN  =      -100.10804378 eV

  energy without entropy =     -100.10658034  energy(sigma->0) =     -100.10731206


--------------------------------------------------------------------------------------------------------




----------------------------------------- Iteration    1(  15)  ---------------------------------------


    POTLOK:  cpu time    0.0177: real time    0.0178
    SETDIJ:  cpu time    0.0051: real time    0.0052
    EDDIAG:  cpu time    0.4178: real time    0.4206
  RMM-DIIS:  cpu time    1.1154: real time    1.1217
    ORTHCH:  cpu time    0.0704: real time    0.0710
       DOS:  cpu time    0.0053: real time    0.0053
    CHARGE:  cpu time    0.0897: real time    0.0903
    MIXING:  cpu time    0.0006: real time    0.0006
    --------------------------------------------
      LOOP:  cpu time    1.7234: real time    1.7374

 eigenvalue-minimisations  :  7699
 total energy-change (2. order) :-0.5369274E+00  (-0.3659520E+00)
 number of electron      65.9999912 magnetization       1.8828485
 augmentation part        8.9879938 magnetization       1.1606795

 Broyden mixing:
  rms(total) = 0.41502E+00    rms(broyden)= 0.41498E+00
  rms(prec ) = 0.47625E+00
  weight for this iteration     100.00

 eigenvalues of (default mixing * dielectric matrix)
  average eigenvalue GAMMA=   1.1515
  1.9406  0.8938  0.6200

 Free energy of the ion-electron system (eV)
  ---------------------------------------------------
  alpha Z        PSCENC =       240.48516418
  Ewald energy   TEWEN  =     -2995.29345967
  -Hartree energ DENC   =     -1135.05977978
  -exchange      EXHF   =         0.00000000
  -V(xc)+E(xc)   XCENC  =        77.45985890
  PAW double counting   =      5278.44076742    -5116.12174763
  entropy T*S    EENTRO =        -0.00086606
  eigenvalues    EBANDS =      -299.22174923
  atomic energy  EATOM  =      3848.66684065
  Solvation  Ediel_sol  =         0.00000000
  ---------------------------------------------------
  free energy    TOTEN  =      -100.64497123 eV

  energy without entropy =     -100.64410516  energy(sigma->0) =     -100.64453820


--------------------------------------------------------------------------------------------------------




----------------------------------------- Iteration    1(  16)  ---------------------------------------


    POTLOK:  cpu time    0.0175: real time    0.0176
    SETDIJ:  cpu time    0.0051: real time    0.0051
    EDDIAG:  cpu time    0.4345: real time    0.4375
  RMM-DIIS:  cpu time    1.1259: real time    1.1325
    ORTHCH:  cpu time    0.0701: real time    0.0706
       DOS:  cpu time    0.0052: real time    0.0052
    CHARGE:  cpu time    0.0895: real time    0.0900
    MIXING:  cpu time    0.0007: real time    0.0007
    --------------------------------------------
      LOOP:  cpu time    1.7499: real time    1.7642

 eigenvalue-minimisations  :  7762
 total energy-change (2. order) :-0.1377421E+00  (-0.5531214E-01)
 number of electron      65.9999913 magnetization       1.9659093
 augmentation part        9.0677332 magnetization       1.2840060

 Broyden mixing:
  rms(total) = 0.16357E+00    rms(broyden)= 0.16355E+00
  rms(prec ) = 0.20302E+00
  weight for this iteration     100.00

 eigenvalues of (default mixing * dielectric matrix)
  average eigenvalue GAMMA=   1.1219
  2.0015  0.9537  0.8511  0.6810

 Free energy of the ion-electron system (eV)
  ---------------------------------------------------
  alpha Z        PSCENC =       240.48516418
  Ewald energy   TEWEN  =     -2995.29345967
  -Hartree energ DENC   =     -1139.24916633
  -exchange      EXHF   =         0.00000000
  -V(xc)+E(xc)   XCENC  =        77.83371363
  PAW double counting   =      5421.29605734    -5259.10387853
  entropy T*S    EENTRO =        -0.00161846
  eigenvalues    EBANDS =      -295.41636610
  atomic energy  EATOM  =      3848.66684065
  Solvation  Ediel_sol  =         0.00000000
  ---------------------------------------------------
  free energy    TOTEN  =      -100.78271329 eV

  energy without entropy =     -100.78109482  energy(sigma->0) =     -100.78190406


--------------------------------------------------------------------------------------------------------




----------------------------------------- Iteration    1(  17)  ---------------------------------------


    POTLOK:  cpu time    0.0177: real time    0.0178
    SETDIJ:  cpu time    0.0051: real time    0.0052
    EDDIAG:  cpu time    0.4182: real time    0.4211
  RMM-DIIS:  cpu time    1.1263: real time    1.1331
    ORTHCH:  cpu time    0.0699: real time    0.0704
       DOS:  cpu time    0.0051: real time    0.0051
    CHARGE:  cpu time    0.0896: real time    0.0900
    MIXING:  cpu time    0.0007: real time    0.0007
    --------------------------------------------
      LOOP:  cpu time    1.7338: real time    1.7477

 eigenvalue-minimisations  :  7784
 total energy-change (2. order) :-0.1900156E-01  (-0.1690160E-01)
 number of electron      65.9999914 magnetization       1.9794384
 augmentation part        9.0597761 magnetization       1.2957610

 Broyden mixing:
  rms(total) = 0.12907E+00    rms(broyden)= 0.12906E+00
  rms(prec ) = 0.15616E+00
  weight for this iteration     100.00

 eigenvalues of (default mixing * dielectric matrix)
  average eigenvalue GAMMA=   1.0759
  1.9914  1.2190  0.8276  0.6706  0.6706

 Free energy of the ion-electron system (eV)
  ---------------------------------------------------
  alpha Z        PSCENC =       240.48516418
  Ewald energy   TEWEN  =     -2995.29345967
  -Hartree energ DENC   =     -1143.55415778
  -exchange      EXHF   =         0.00000000
  -V(xc)+E(xc)   XCENC  =        78.11396929
  PAW double counting   =      5437.24545597    -5275.25907288
  entropy T*S    EENTRO =        -0.00102785
  eigenvalues    EBANDS =      -291.20542676
  atomic energy  EATOM  =      3848.66684065
  Solvation  Ediel_sol  =         0.00000000
  ---------------------------------------------------
  free energy    TOTEN  =      -100.80171485 eV

  energy without entropy =     -100.80068700  energy(sigma->0) =     -100.80120092


--------------------------------------------------------------------------------------------------------




----------------------------------------- Iteration    1(  18)  ---------------------------------------


    POTLOK:  cpu time    0.0177: real time    0.0178
    SETDIJ:  cpu time    0.0053: real time    0.0053
    EDDIAG:  cpu time    0.4145: real time    0.4175
  RMM-DIIS:  cpu time    1.1223: real time    1.1291
    ORTHCH:  cpu time    0.0702: real time    0.0708
       DOS:  cpu time    0.0051: real time    0.0051
    CHARGE:  cpu time    0.0898: real time    0.0903
    MIXING:  cpu time    0.0008: real time    0.0008
    --------------------------------------------
      LOOP:  cpu time    1.7270: real time    1.7411

 eigenvalue-minimisations  :  7733
 total energy-change (2. order) :-0.1594780E-01  (-0.6146756E-02)
 number of electron      65.9999914 magnetization       1.9687238
 augmentation part        9.0511337 magnetization       1.2815430

 Broyden mixing:
  rms(total) = 0.96149E-01    rms(broyden)= 0.96146E-01
  rms(prec ) = 0.10852E+00
  weight for this iteration     100.00

 eigenvalues of (default mixing * dielectric matrix)
  average eigenvalue GAMMA=   1.1242
  2.2182  1.4880  0.8587  0.7695  0.7695  0.6413

 Free energy of the ion-electron system (eV)
  ---------------------------------------------------
  alpha Z        PSCENC =       240.48516418
  Ewald energy   TEWEN  =     -2995.29345967
  -Hartree energ DENC   =     -1145.39782931
  -exchange      EXHF   =         0.00000000
  -V(xc)+E(xc)   XCENC  =        78.24100364
  PAW double counting   =      5456.11248903    -5294.14878643
  entropy T*S    EENTRO =        -0.00054623
  eigenvalues    EBANDS =      -289.48253849
  atomic energy  EATOM  =      3848.66684065
  Solvation  Ediel_sol  =         0.00000000
  ---------------------------------------------------
  free energy    TOTEN  =      -100.81766265 eV

  energy without entropy =     -100.81711641  energy(sigma->0) =     -100.81738953


--------------------------------------------------------------------------------------------------------




----------------------------------------- Iteration    1(  19)  ---------------------------------------


    POTLOK:  cpu time    0.0182: real time    0.0183
    SETDIJ:  cpu time    0.0051: real time    0.0052
    EDDIAG:  cpu time    0.4134: real time    0.4162
  RMM-DIIS:  cpu time    1.1370: real time    1.1436
    ORTHCH:  cpu time    0.0702: real time    0.0708
       DOS:  cpu time    0.0051: real time    0.0052
    CHARGE:  cpu time    0.0902: real time    0.0908
    MIXING:  cpu time    0.0008: real time    0.0008
    --------------------------------------------
      LOOP:  cpu time    1.7412: real time    1.7552

 eigenvalue-minimisations  :  7821
 total energy-change (2. order) :-0.1885202E-01  (-0.3821493E-02)
 number of electron      65.9999914 magnetization       1.9819372
 augmentation part        9.0399584 magnetization       1.2885088

 Broyden mixing:
  rms(total) = 0.58545E-01    rms(broyden)= 0.58541E-01
  rms(prec ) = 0.68373E-01
  weight for this iteration     100.00

 eigenvalues of (default mixing * dielectric matrix)
  average eigenvalue GAMMA=   1.1456
  2.3700  1.4516  0.9352  0.9352  0.9202  0.7033  0.7033

 Free energy of the ion-electron system (eV)
  ---------------------------------------------------
  alpha Z        PSCENC =       240.48516418
  Ewald energy   TEWEN  =     -2995.29345967
  -Hartree energ DENC   =     -1146.71208096
  -exchange      EXHF   =         0.00000000
  -V(xc)+E(xc)   XCENC  =        78.34398990
  PAW double counting   =      5486.20883320    -5324.24112255
  entropy T*S    EENTRO =        -0.00126831
  eigenvalues    EBANDS =      -288.29341112
  atomic energy  EATOM  =      3848.66684065
  Solvation  Ediel_sol  =         0.00000000
  ---------------------------------------------------
  free energy    TOTEN  =      -100.83651467 eV

  energy without entropy =     -100.83524636  energy(sigma->0) =     -100.83588051


--------------------------------------------------------------------------------------------------------




----------------------------------------- Iteration    1(  20)  ---------------------------------------


    POTLOK:  cpu time    0.0176: real time    0.0177
    SETDIJ:  cpu time    0.0052: real time    0.0052
    EDDIAG:  cpu time    0.4158: real time    0.4185
  RMM-DIIS:  cpu time    1.1104: real time    1.1171
    ORTHCH:  cpu time    0.0704: real time    0.0710
       DOS:  cpu time    0.0051: real time    0.0053
    CHARGE:  cpu time    0.0888: real time    0.0892
    MIXING:  cpu time    0.0008: real time    0.0008
    --------------------------------------------
      LOOP:  cpu time    1.7157: real time    1.7300

 eigenvalue-minimisations  :  7697
 total energy-change (2. order) :-0.4744739E-02  (-0.1058978E-02)
 number of electron      65.9999914 magnetization       1.9720093
 augmentation part        9.0367082 magnetization       1.2773210

 Broyden mixing:
  rms(total) = 0.34528E-01    rms(broyden)= 0.34526E-01
  rms(prec ) = 0.40504E-01
  weight for this iteration     100.00

 eigenvalues of (default mixing * dielectric matrix)
  average eigenvalue GAMMA=   1.1935
  3.0021  1.4321  1.4321  0.7644  0.7644  0.7367  0.7367  0.6794

 Free energy of the ion-electron system (eV)
  ---------------------------------------------------
  alpha Z        PSCENC =       240.48516418
  Ewald energy   TEWEN  =     -2995.29345967
  -Hartree energ DENC   =     -1147.50824568
  -exchange      EXHF   =         0.00000000
  -V(xc)+E(xc)   XCENC  =        78.40606513
  PAW double counting   =      5497.34904639    -5335.36173137
  entropy T*S    EENTRO =        -0.00063995
  eigenvalues    EBANDS =      -287.58429909
  atomic energy  EATOM  =      3848.66684065
  Solvation  Ediel_sol  =         0.00000000
  ---------------------------------------------------
  free energy    TOTEN  =      -100.84125941 eV

  energy without entropy =     -100.84061946  energy(sigma->0) =     -100.84093944


--------------------------------------------------------------------------------------------------------




----------------------------------------- Iteration    1(  21)  ---------------------------------------


    POTLOK:  cpu time    0.0175: real time    0.0176
    SETDIJ:  cpu time    0.0051: real time    0.0052
    EDDIAG:  cpu time    0.4158: real time    0.4186
  RMM-DIIS:  cpu time    1.1195: real time    1.1261
    ORTHCH:  cpu time    0.0701: real time    0.0706
       DOS:  cpu time    0.0042: real time    0.0042
    CHARGE:  cpu time    0.0894: real time    0.0899
    MIXING:  cpu time    0.0009: real time    0.0009
    --------------------------------------------
      LOOP:  cpu time    1.7237: real time    1.7376

 eigenvalue-minimisations  :  7715
 total energy-change (2. order) :-0.2055892E-02  (-0.3096898E-03)
 number of electron      65.9999914 magnetization       1.9836312
 augmentation part        9.0376101 magnetization       1.2890171

 Broyden mixing:
  rms(total) = 0.16996E-01    rms(broyden)= 0.16995E-01
  rms(prec ) = 0.23448E-01
  weight for this iteration     100.00

 eigenvalues of (default mixing * dielectric matrix)
  average eigenvalue GAMMA=   1.2005
  3.2768  1.5611  1.5611  0.7518  0.7518  0.8488  0.7094  0.7094  0.6346

 Free energy of the ion-electron system (eV)
  ---------------------------------------------------
  alpha Z        PSCENC =       240.48516418
  Ewald energy   TEWEN  =     -2995.29345967
  -Hartree energ DENC   =     -1147.35003006
  -exchange      EXHF   =         0.00000000
  -V(xc)+E(xc)   XCENC  =        78.41268641
  PAW double counting   =      5507.47196234    -5345.41843195
  entropy T*S    EENTRO =        -0.00039890
  eigenvalues    EBANDS =      -287.81764829
  atomic energy  EATOM  =      3848.66684065
  Solvation  Ediel_sol  =         0.00000000
  ---------------------------------------------------
  free energy    TOTEN  =      -100.84331530 eV

  energy without entropy =     -100.84291640  energy(sigma->0) =     -100.84311585


--------------------------------------------------------------------------------------------------------




----------------------------------------- Iteration    1(  22)  ---------------------------------------


    POTLOK:  cpu time    0.0176: real time    0.0178
    SETDIJ:  cpu time    0.0051: real time    0.0051
    EDDIAG:  cpu time    0.4141: real time    0.4177
  RMM-DIIS:  cpu time    1.1356: real time    1.1424
    ORTHCH:  cpu time    0.0700: real time    0.0705
       DOS:  cpu time    0.0048: real time    0.0049
    CHARGE:  cpu time    0.0892: real time    0.0897
    MIXING:  cpu time    0.0009: real time    0.0009
    --------------------------------------------
      LOOP:  cpu time    1.7390: real time    1.7539

 eigenvalue-minimisations  :  7788
 total energy-change (2. order) :-0.9600369E-04  (-0.1219845E-03)
 number of electron      65.9999914 magnetization       1.9982288
 augmentation part        9.0395002 magnetization       1.3035630

 Broyden mixing:
  rms(total) = 0.99835E-02    rms(broyden)= 0.99827E-02
  rms(prec ) = 0.12267E-01
  weight for this iteration     100.00

 eigenvalues of (default mixing * dielectric matrix)
  average eigenvalue GAMMA=   1.2047
  3.3105  1.8674  1.4694  0.7889  0.7889  0.8781  0.8476  0.8476  0.6243  0.6243

 Free energy of the ion-electron system (eV)
  ---------------------------------------------------
  alpha Z        PSCENC =       240.48516418
  Ewald energy   TEWEN  =     -2995.29345967
  -Hartree energ DENC   =     -1147.20198870
  -exchange      EXHF   =         0.00000000
  -V(xc)+E(xc)   XCENC  =        78.40652377
  PAW double counting   =      5505.39986927    -5343.31073651
  entropy T*S    EENTRO =        -0.00039501
  eigenvalues    EBANDS =      -287.99522928
  atomic energy  EATOM  =      3848.66684065
  Solvation  Ediel_sol  =         0.00000000
  ---------------------------------------------------
  free energy    TOTEN  =      -100.84341130 eV

  energy without entropy =     -100.84301630  energy(sigma->0) =     -100.84321380


--------------------------------------------------------------------------------------------------------




----------------------------------------- Iteration    1(  23)  ---------------------------------------


    POTLOK:  cpu time    0.0177: real time    0.0179
    SETDIJ:  cpu time    0.0052: real time    0.0052
    EDDIAG:  cpu time    0.4138: real time    0.4165
  RMM-DIIS:  cpu time    1.1772: real time    1.1840
    ORTHCH:  cpu time    0.0700: real time    0.0706
       DOS:  cpu time    0.0052: real time    0.0052
    CHARGE:  cpu time    0.0889: real time    0.0895
[...]
     43       6.5582      0.00000
     44       6.6104      0.00000
     45       6.8603      0.00000
     46       6.9406      0.00000
     47       7.0627      0.00000
     48       7.1557      0.00000

 k-point    38 :       0.1667    0.5000    0.5000
  band No.  band energies     occupation 
      1     -15.6091      1.00000
      2     -15.3809      1.00000
      3     -15.2493      1.00000
      4     -15.0657      1.00000
      5     -15.0040      1.00000
      6     -14.9090      1.00000
      7     -14.8235      1.00000
      8     -14.7120      1.00000
      9      -3.0306      1.00000
     10      -2.9723      1.00000
     11      -2.7406      1.00000
     12      -2.5754      1.00000
     13      -2.1068      1.00000
     14      -2.0634      1.00000
     15      -1.9572      1.00000
     16      -1.8717      1.00000
     17      -1.7459      1.00000
     18      -1.6264      1.00000
     19      -1.5605      1.00000
     20      -1.2689      1.00000
     21      -1.1380      1.00000
     22      -1.0725      1.00000
     23      -0.7653      1.00000
     24      -0.5533      1.00000
     25      -0.5192      1.00000
     26      -0.3282      1.00000
     27      -0.2464      1.00000
     28       0.1173      1.00000
     29       0.3103      1.00000
     30       0.4373      1.00000
     31       0.7277      1.00000
     32       0.8538      1.00000
     33       4.5176      0.00000
     34       4.8767      0.00000
     35       5.0541      0.00000
     36       5.1321      0.00000
     37       5.6624      0.00000
     38       5.7786      0.00000
     39       5.9330      0.00000
     40       6.0087      0.00000
     41       6.0167      0.00000
     42       6.5008      0.00000
     43       6.6342      0.00000
     44       6.8330      0.00000
     45       6.8863      0.00000
     46       7.1140      0.00000
     47       7.2783      0.00000
     48       7.4928      0.00000

 k-point    39 :       0.3333    0.5000    0.5000
  band No.  band energies     occupation 
      1     -15.3990      1.00000
      2     -15.2775      1.00000
      3     -15.2452      1.00000
      4     -15.0332      1.00000
      5     -14.9375      1.00000
      6     -14.8018      1.00000
      7     -14.7882      1.00000
      8     -14.7151      1.00000
      9      -3.0908      1.00000
     10      -3.0223      1.00000
     11      -2.8184      1.00000
     12      -2.6728      1.00000
     13      -2.4468      1.00000
     14      -2.3969      1.00000
     15      -2.3831      1.00000
     16      -2.1073      1.00000
     17      -2.0774      1.00000
     18      -1.8781      1.00000
     19      -1.7264      1.00000
     20      -1.6032      1.00000
     21      -1.4965      1.00000
     22      -1.4583      1.00000
     23      -1.3130      1.00000
     24      -1.2068      1.00000
     25      -0.5131      1.00000
     26      -0.1846      1.00000
     27      -0.0751      1.00000
     28       0.3104      1.00000
     29       0.3911      1.00000
     30       0.5862      1.00000
     31       1.0401      1.00000
     32       1.3045      1.00000
     33       5.0151      0.00000
     34       5.0387      0.00000
     35       5.1933      0.00000
     36       5.4204      0.00000
     37       5.7048      0.00000
     38       5.9684      0.00000
     39       5.9889      0.00000
     40       6.1380      0.00000
     41       6.3132      0.00000
     42       6.5754      0.00000
     43       6.9399      0.00000
     44       7.3260      0.00000
     45       7.3698      0.00000
     46       7.4755      0.00000
     47       7.6289      0.00000
     48       8.3851      0.00000

 k-point    40 :       0.5000    0.5000    0.5000
  band No.  band energies     occupation 
      1     -15.2596      1.00000
      2     -15.2549      1.00000
      3     -15.2312      1.00000
      4     -15.0588      1.00000
      5     -14.8747      1.00000
      6     -14.7546      1.00000
      7     -14.7493      1.00000
      8     -14.7260      1.00000
      9      -3.1190      1.00000
     10      -2.9742      1.00000
     11      -2.8928      1.00000
     12      -2.8901      1.00000
     13      -2.6462      1.00000
     14      -2.5838      1.00000
     15      -2.4871      1.00000
     16      -2.3417      1.00000
     17      -2.2247      1.00000
     18      -1.9692      1.00000
     19      -1.8365      1.00000
     20      -1.7893      1.00000
     21      -1.7767      1.00000
     22      -1.5130      1.00000
     23      -1.4252      1.00000
     24      -1.2466      1.00000
     25      -0.3821      1.00000
     26      -0.2534      1.00000
     27       0.0100      1.00000
     28       0.0179      1.00000
     29       0.6039      1.00000
     30       0.7746      1.00000
     31       1.2002      1.00000
     32       1.4784      1.00000
     33       5.0775      0.00000
     34       5.3146      0.00000
     35       5.4053      0.00000
     36       5.5892      0.00000
     37       5.7159      0.00000
     38       5.9742      0.00000
     39       5.9792      0.00000
     40       6.2266      0.00000
     41       6.4626      0.00000
     42       6.5510      0.00000
     43       7.1120      0.00000
     44       7.4491      0.00000
     45       7.5140      0.00000
     46       7.5377      0.00000
     47       7.6813      0.00000
     48       7.9729      0.00000


--------------------------------------------------------------------------------------------------------


 soft charge-density along one line, spin component           1
         0         1         2         3         4         5         6         7         8         9
 total charge-density along one line
 
 soft charge-density along one line, spin component           2
         0         1         2         3         4         5         6         7         8         9
 total charge-density along one line
 
 pseudopotential strength for first ion, spin component:           1
 -3.888   0.000   0.000  -0.000   0.000  -4.031   0.000   0.000
  0.000  -3.849  -0.003  -0.000   0.001   0.000  -3.986  -0.004
  0.000  -0.003  -4.550   0.000  -0.036   0.000  -0.004  -4.750
 -0.000  -0.000   0.000  -4.053  -0.000  -0.000  -0.000   0.000
  0.000   0.001  -0.036  -0.000  -4.420   0.000   0.001  -0.039
 -4.031   0.000   0.000  -0.000   0.000  -4.065   0.000  -0.000
  0.000  -3.986  -0.004  -0.000   0.001   0.000  -4.013  -0.004
  0.000  -0.004  -4.750   0.000  -0.039  -0.000  -0.004  -4.861
 -0.000  -0.000   0.000  -4.212  -0.000  -0.000  -0.000   0.000
  0.000   0.001  -0.039  -0.000  -4.610   0.000   0.001  -0.044
 -0.000  -0.000  -0.001   0.000   0.004  -0.000  -0.000  -0.002
  0.000   0.001   0.005  -0.000  -0.007   0.000   0.001   0.007
 -0.000  -0.005  -0.000   0.000  -0.000  -0.000  -0.006  -0.000
  0.000  -0.000  -0.015  -0.000  -0.003   0.000  -0.000  -0.017
 -0.000   0.000   0.000  -0.011  -0.000  -0.000   0.000   0.000
 pseudopotential strength for first ion, spin component:           2
 -3.703  -0.000   0.000  -0.000   0.000  -3.822  -0.000   0.000
 -0.000  -3.783  -0.002   0.000   0.002  -0.000  -3.910  -0.002
  0.000  -0.002  -4.452   0.000   0.008   0.000  -0.002  -4.638
 -0.000   0.000   0.000  -3.681   0.000  -0.000   0.000   0.000
  0.000   0.002   0.008   0.000  -4.335   0.000   0.002   0.010
 -3.822  -0.000   0.000  -0.000   0.000  -3.828  -0.000   0.000
 -0.000  -3.910  -0.002   0.000   0.002  -0.000  -3.925  -0.002
  0.000  -0.002  -4.638   0.000   0.010   0.000  -0.002  -4.732
 -0.000   0.000   0.000  -3.796   0.000  -0.000   0.000   0.001
  0.000   0.002   0.010   0.000  -4.512   0.000   0.002   0.011
 -0.000  -0.000  -0.002  -0.000  -0.001  -0.000  -0.000  -0.003
  0.000   0.000   0.006   0.000   0.003   0.000   0.001   0.007
 -0.000  -0.004  -0.000   0.000  -0.000  -0.000  -0.004  -0.000
  0.000  -0.000  -0.014  -0.000  -0.002   0.000  -0.000  -0.016
  0.000   0.000   0.000  -0.008  -0.000   0.000   0.000   0.000
 total augmentation occupancy for first ion, spin component:           1
  2.275   0.002  -0.000   0.012  -0.000  -1.323  -0.001   0.000  -0.008   0.000   0.000   0.000   0.001   0.000  -0.004
  0.002   3.306   0.032   0.000  -0.029  -0.001  -2.085  -0.023  -0.000   0.020   0.022   0.002   0.379  -0.011   0.000
 -0.000   0.032  10.739  -0.003  -0.008   0.000  -0.024  -7.306   0.002   0.013   0.373   0.028  -0.010  -0.589   0.002
  0.012   0.000  -0.003   3.000   0.000  -0.008  -0.000   0.002  -1.849  -0.000  -0.000   0.000   0.000   0.000  -0.069
 -0.000  -0.029  -0.008   0.000   9.606   0.000   0.020   0.013  -0.000  -6.527  -0.044  -0.003  -0.011  -0.173  -0.004
 -1.323  -0.001   0.000  -0.008   0.000   0.799   0.001  -0.000   0.005  -0.000  -0.000  -0.000  -0.001  -0.000   0.003
 -0.001  -2.085  -0.024  -0.000   0.020   0.001   1.335   0.018   0.000  -0.014  -0.015  -0.001  -0.275   0.007  -0.000
  0.000  -0.023  -7.306   0.002   0.013  -0.000   0.018   5.078  -0.002  -0.005  -0.258  -0.024   0.007   0.400  -0.002
 -0.008  -0.000   0.002  -1.849  -0.000   0.005   0.000  -0.002   1.190   0.000  -0.000  -0.000  -0.000  -0.000   0.062
  0.000   0.020   0.013  -0.000  -6.527  -0.000  -0.014  -0.005   0.000   4.520   0.030   0.001   0.008   0.132   0.003
  0.000   0.022   0.373  -0.000  -0.044  -0.000  -0.015  -0.258  -0.000   0.030   1.984   0.110   0.001  -0.093  -0.001
  0.000   0.002   0.028   0.000  -0.003  -0.000  -0.001  -0.024  -0.000   0.001   0.110   0.011  -0.000  -0.002  -0.000
  0.001   0.379  -0.010   0.000  -0.011  -0.001  -0.275   0.007  -0.000   0.008   0.001  -0.000   0.510   0.002   0.000
  0.000  -0.011  -0.589   0.000  -0.173  -0.000   0.007   0.400  -0.000   0.132  -0.093  -0.002   0.002   0.570  -0.000
 -0.004   0.000   0.002  -0.069  -0.004   0.003  -0.000  -0.002   0.062   0.003  -0.001  -0.000   0.000  -0.000   0.491
 total augmentation occupancy for first ion, spin component:           2
  0.004  -0.000   0.000   0.001   0.000   0.017   0.000   0.000  -0.001  -0.000  -0.000   0.000   0.000   0.000   0.000
 -0.000  -0.008   0.000   0.000   0.000   0.000   0.013  -0.000  -0.000  -0.000  -0.000   0.000  -0.001   0.000   0.000
  0.000   0.000  -0.028   0.000  -0.005  -0.000  -0.000   0.026   0.000   0.005  -0.011   0.000   0.000   0.006  -0.000
  0.001   0.000   0.000   0.130  -0.000  -0.001  -0.000   0.000  -0.028   0.000   0.000   0.000  -0.000   0.000  -0.001
  0.000   0.000  -0.005  -0.000  -0.029  -0.000  -0.000   0.005   0.000   0.027  -0.002   0.000   0.000   0.007   0.000
  0.017   0.000  -0.000  -0.001  -0.000   0.003  -0.000   0.000   0.000   0.000   0.000  -0.000   0.000  -0.000   0.000
  0.000   0.013  -0.000  -0.000  -0.000  -0.000  -0.011   0.000   0.000   0.000   0.000  -0.000   0.001  -0.000  -0.000
  0.000  -0.000   0.026   0.000   0.005   0.000   0.000  -0.008  -0.000   0.006   0.017  -0.001  -0.000  -0.007  -0.000
 -0.001  -0.000   0.000  -0.028   0.000   0.000   0.000  -0.000   0.032   0.000  -0.000   0.000   0.000  -0.000   0.015
 -0.000  -0.000   0.005   0.000   0.027   0.000   0.000   0.006   0.000  -0.013   0.008  -0.001  -0.000  -0.007  -0.000
 -0.000  -0.000  -0.011   0.000  -0.002   0.000   0.000   0.017  -0.000   0.008   0.002  -0.002   0.000   0.002  -0.000
  0.000   0.000   0.000   0.000   0.000  -0.000  -0.000  -0.001   0.000  -0.001  -0.002   0.000  -0.000  -0.000   0.000
  0.000  -0.001   0.000  -0.000   0.000   0.000   0.001  -0.000   0.000  -0.000   0.000  -0.000   0.001  -0.000  -0.000
  0.000   0.000   0.006   0.000   0.007  -0.000  -0.000  -0.007  -0.000  -0.007   0.002  -0.000  -0.000  -0.001   0.000
  0.000   0.000  -0.000  -0.001   0.000   0.000  -0.000  -0.000   0.015  -0.000  -0.000   0.000  -0.000   0.000   0.001


------------------------ aborting loop because EDIFF is reached ----------------------------------------


    CHARGE:  cpu time    0.0964: real time    0.0969
    FORLOC:  cpu time    0.0013: real time    0.0013
    FORNL :  cpu time    0.5670: real time    0.5707
    STRESS:  cpu time    1.6280: real time    1.6376
    FORCOR:  cpu time    0.0179: real time    0.0180
    FORHAR:  cpu time    0.0028: real time    0.0028
    MIXING:  cpu time    0.0013: real time    0.0013
    OFIELD:  cpu time    0.0000: real time    0.0000

 ---------------------------------------------------------------------------------------------

         DFTD3 V3.0 Rev 1        
 IVDW         = 12
 DF pbe       
 parameters
 VDW_S6       =    1.0000
 VDW_S8       =    0.7875
 VDW_A1       =    0.4289
 VDW_A2       =    4.4407
 k1-k3        =   16.0000    1.3333   -4.0000
 VDW_RADIUS   =   50.2022 A
 VDW_CNRADIUS =   21.1671 A
 Edisp (eV)   -3.47003

 E6    (eV) :    -2.0789
 E8    (eV) :    -1.3911
 % E8        : 40.09
    FORVDW:  cpu time    0.0819: real time    0.0826

  FORCE on cell =-STRESS in cart. coord.  units (eV):
  Direction    XX          YY          ZZ          XY          YZ          ZX
  --------------------------------------------------------------------------------------
  Alpha Z   240.48516   240.48516   240.48516
  Ewald   -1030.07449 -1015.21861  -950.00676     0.01574     1.02742    -0.10949
  Hartree   374.20556   376.51897   396.48949    -0.01122    -0.19356    -0.05013
  E(xc)    -309.91393  -309.61539  -310.11288     0.00001    -0.01651    -0.02111
  Local    -330.32454  -345.06293  -424.10215    -0.00167    -0.69361     0.11527
  n-local  -187.12483  -181.35419  -181.11376    -0.00116     0.07975    -0.06029
  augment    77.12304    75.02447    74.61329    -0.00085    -0.01489     0.03940
  Kinetic  1169.06270  1163.38193  1157.87011    -0.00859    -0.19890     0.07434
  Fock        0.00000     0.00000     0.00000     0.00000     0.00000     0.00000
  vdW        -3.66248    -3.70483    -3.62531     0.00001    -0.00006     0.00000
  -------------------------------------------------------------------------------------
  Total      -0.22381     0.45457     0.49718    -0.00773    -0.01036    -0.01202
  in kB      -2.40646     4.88770     5.34591    -0.08315    -0.11135    -0.12921
  external pressure =        2.61 kB  Pullay stress =        0.00 kB


 VOLUME and BASIS-vectors are now :
 -----------------------------------------------------------------------------
  energy-cutoff  :      600.00
  volume of cell :      149.01
      direct lattice vectors                 reciprocal lattice vectors
     4.103157164  0.000087538  0.000764411     0.243714761 -0.000009214  0.000043807
     0.000149545  3.969695847  0.002932428    -0.000005332  0.251908635 -0.000225167
    -0.001644042  0.008176936  9.148078349    -0.000020363 -0.000080749  0.109312643

  length of vectors
     4.103157237  3.969696933  9.148082152     0.243714765  0.251908735  0.109312675


 FORCES acting on ions
    electron-ion (+dipol)            ewald-force                    non-local-force                 convergence-correction
 -----------------------------------------------------------------------------------------------
   -.938E-01 -.321E+00 0.143E+02   0.914E-01 0.315E+00 -.140E+02   0.139E-02 -.413E-02 -.100E+00   -.562E-04 -.753E-04 0.724E-03
   -.105E+00 -.169E+00 -.401E+01   0.104E+00 0.165E+00 0.373E+01   -.796E-02 0.635E-02 0.276E+00   -.961E-06 -.182E-04 -.133E-02
   0.602E-02 0.956E-01 -.370E+01   -.632E-02 -.847E-01 0.362E+01   0.253E-02 -.661E-02 -.276E+00   -.355E-04 -.581E-04 -.478E-03
   0.461E-01 0.653E+00 -.880E+01   -.415E-01 -.636E+00 0.862E+01   0.534E-02 -.114E-01 0.934E-01   0.263E-04 -.205E-04 0.140E-02
   0.130E+00 -.213E+00 -.114E+02   -.173E+00 0.265E+00 0.188E+02   0.384E-01 -.516E-01 -.750E+01   0.862E-04 -.187E-03 0.136E-02
   -.646E-01 0.192E+00 -.362E+02   0.668E-01 -.208E+00 0.424E+02   0.625E-02 0.101E-01 -.639E+01   -.883E-04 -.239E-03 -.201E-02
   -.889E-01 -.393E-01 0.657E+02   0.997E-01 0.161E+00 -.742E+02   -.931E-02 -.120E+00 0.825E+01   -.426E-03 0.277E-03 0.112E-02
   0.126E+00 -.132E+00 0.395E+02   -.160E+00 0.161E+00 -.462E+02   0.337E-01 -.297E-01 0.690E+01   -.531E-03 -.100E-03 -.265E-02
   -.247E-01 0.386E-01 -.504E+02   0.464E-01 -.590E-01 0.564E+02   -.243E-01 0.188E-01 -.566E+01   0.506E-03 -.265E-03 -.198E-02
   0.367E-01 -.319E+00 -.617E+02   -.261E-01 0.222E+00 0.710E+02   -.140E-01 0.901E-01 -.928E+01   0.248E-03 -.221E-03 0.208E-02
   -.478E-02 -.529E-01 0.192E+02   0.145E-01 0.287E-01 -.247E+02   -.917E-02 0.301E-01 0.563E+01   -.229E-04 0.164E-03 -.538E-03
   -.540E-01 0.306E+00 0.393E+02   0.432E-01 -.276E+00 -.494E+02   0.966E-02 -.305E-01 0.102E+02   -.397E-04 -.194E-06 0.272E-02
   0.301E-01 0.205E-01 -.172E+01   -.283E-01 -.199E-01 0.169E+01   -.587E-02 0.185E-02 0.142E-01   0.377E-05 0.787E-05 -.464E-04
   0.332E-01 0.381E-01 -.264E+01   -.312E-01 -.353E-01 0.234E+01   -.340E-02 -.507E-02 0.342E+00   -.780E-06 -.208E-05 -.260E-03
 -----------------------------------------------------------------------------------------------
   -.276E-01 0.973E-01 -.248E+01   -.158E-14 0.587E-14 0.137E-12   0.232E-01 -.102E+00 0.250E+01   -.332E-03 -.738E-03 0.113E-03
 
 
 POSITION                                       TOTAL-FORCE (eV/Angst)
 -----------------------------------------------------------------------------------
      2.05696      1.99509      4.43395        -0.000703     -0.009956      0.274312
      2.05730      3.97552      6.80787        -0.008810      0.002475      0.010355
      0.00784      3.96042      0.00899         0.002556      0.004605     -0.367104
      0.00586      1.97362      2.39372         0.010320      0.005889     -0.087280
      0.00633      1.99112      4.45181        -0.003452      0.000604     -0.077330
      2.05717      1.99099      6.55097         0.008717     -0.006049     -0.207382
      2.05794      0.00740      4.81745         0.001397      0.001812     -0.272868
      0.00635      3.97430      7.11618        -0.000568      0.000073      0.207682
      2.05749      3.97014      8.85996        -0.001764     -0.001482      0.303361
      0.00677      3.96104      1.95662        -0.002849     -0.005790      0.052339
      0.00721      1.97592      0.19367         0.000900      0.006428      0.076819
      2.05762      1.98265      2.51094        -0.000872      0.000333      0.066765
      2.05955      1.97612      0.35784        -0.003768      0.002897     -0.026997
      0.00611      1.99082      6.49639        -0.001106     -0.001838      0.047329
 -----------------------------------------------------------------------------------
    total drift:                               -0.004823     -0.005504      0.013531


--------------------------------------------------------------------------------------------------------



  FREE ENERGIE OF THE ION-ELECTRON SYSTEM (eV)
  ---------------------------------------------------
  free  energy   TOTEN  =      -104.31359928 eV

  energy  without entropy=     -104.31324189  energy(sigma->0) =     -104.31342058
 


--------------------------------------------------------------------------------------------------------


    POTLOK:  cpu time    0.0229: real time    0.0230


--------------------------------------------------------------------------------------------------------


 stress matrix after NEB project (eV)
     -0.22381     -0.00773     -0.01202
     -0.00773      0.45457     -0.01036
     -0.01202     -0.01036      0.49718
  FORCES: max atom, RMS     0.367142    0.187656
  FORCE total and by dimension    0.702145    0.367104
  Stress total and by dimension    0.710306    0.497183


--------------------------------------------------------------------------------------------------------


    WAVPRE:  cpu time    0.0032: real time    0.0033
 FEWALD executed in parallel
    FEWALD:  cpu time    0.0003: real time    0.0003
    GENKIN:  cpu time    0.0051: real time    0.0052

 real space projection operators:
  total allocation   :       2673.27 KBytes
  max/ min on nodes  :        388.42        280.61

    ORTHCH:  cpu time    0.2382: real time    0.2396
     LOOP+:  cpu time   46.5329: real time   46.9142