 vasp.5.4.1 05Feb16 (build Apr 23 2022 14:15:44) complex                        
  
 executed on           IFC91_ompi date 2024.10.28  22:46:02
 running on   48 total cores
 distrk:  each k-point on   48 cores,    1 groups
 distr:  one band on NCORES_PER_BAND=   8 cores,    6 groups


--------------------------------------------------------------------------------------------------------


 INCAR:
 POTCAR:    PAW_PBE Co 02Aug2007                  
 POTCAR:    PAW_PBE O 08Apr2002                   
 POTCAR:    PAW_PBE Li 17Jan2003                  
 POTCAR:    PAW_PBE Co 02Aug2007                  
   VRHFIN =Co: d8 s1                                                            
   LEXCH  = PE                                                                  
   EATOM  =   813.3670 eV,   59.7808 Ry                                         
                                                                                
   TITEL  = PAW_PBE Co 02Aug2007                                                
   LULTRA =        F    use ultrasoft PP ?                                      
   IUNSCR =        1    unscreen: 0-lin 1-nonlin 2-no                           
   RPACOR =    2.000    partial core radius                                     
   POMASS =   58.933; ZVAL   =    9.000    mass and valenz                      
   RCORE  =    2.300    outmost cutoff radius                                   
   RWIGS  =    2.460; RWIGS  =    1.302    wigner-seitz radius (au A)           
   ENMAX  =  267.968; ENMIN  =  200.976 eV                                      
   RCLOC  =    1.203    cutoff for local pot                                    
   LCOR   =        T    correct aug charges                                     
   LPAW   =        T    paw PP                                                  
   EAUG   =  477.818                                                            
   DEXC   =    0.000                                                            
   RMAX   =    2.360    core radius for proj-oper                               
   RAUG   =    1.300    factor for augmentation sphere                          
   RDEP   =    2.393    radius for radial grids                                 
   RDEPT  =    1.864    core radius for aug-charge                              
                                                                                
   Atomic configuration                                                         
    9 entries                                                                   
     n  l   j            E        occ.                                          
     1  0  0.50     -7587.6674   2.0000                                         
     2  0  0.50      -893.6084   2.0000                                         
     2  1  1.50      -764.5805   6.0000                                         
     3  0  0.50       -97.5973   2.0000                                         
     3  1  1.50       -60.9648   6.0000                                         
     3  2  2.50        -4.2382   8.0000                                         
     4  0  0.50        -4.3746   1.0000                                         
     4  1  1.50        -4.0817   0.0000                                         
     4  3  2.50        -1.3606   0.0000                                         
   Description                                                                  
     l       E           TYP  RCUT    TYP  RCUT                                 
     2     -4.2382362     23  2.300                                             
     2     -5.5988188     23  2.300                                             
     0     -4.3745797     23  2.300                                             
     0      5.7660125     23  2.300                                             
     1     -2.7211652     23  2.300                                             
     1     16.9860234     23  2.300                                             
  local pseudopotential read in
  partial core-charges read in
  partial kinetic energy density read in
  atomic valenz-charges read in
  non local Contribution for L=           2  read in
    real space projection operators read in
  non local Contribution for L=           2  read in
    real space projection operators read in
  non local Contribution for L=           0  read in
    real space projection operators read in
  non local Contribution for L=           0  read in
    real space projection operators read in
  non local Contribution for L=           1  read in
    real space projection operators read in
  non local Contribution for L=           1  read in
    real space projection operators read in
    PAW grid and wavefunctions read in
 
   number of l-projection  operators is LMAX  =           6
   number of lm-projection operators is LMMAX =          18
 
 POTCAR:    PAW_PBE O 08Apr2002                   
   VRHFIN =O: s2p4                                                              
   LEXCH  = PE                                                                  
   EATOM  =   432.3788 eV,   31.7789 Ry                                         
                                                                                
   TITEL  = PAW_PBE O 08Apr2002                                                 
   LULTRA =        F    use ultrasoft PP ?                                      
   IUNSCR =        1    unscreen: 0-lin 1-nonlin 2-no                           
   RPACOR =    1.200    partial core radius                                     
   POMASS =   16.000; ZVAL   =    6.000    mass and valenz                      
   RCORE  =    1.520    outmost cutoff radius                                   
   RWIGS  =    1.550; RWIGS  =    0.820    wigner-seitz radius (au A)           
   ENMAX  =  400.000; ENMIN  =  300.000 eV                                      
   ICORE  =        2    local potential                                         
   LCOR   =        T    correct aug charges                                     
   LPAW   =        T    paw PP                                                  
   EAUG   =  605.392                                                            
   DEXC   =    0.000                                                            
   RMAX   =    1.553    core radius for proj-oper                               
   RAUG   =    1.300    factor for augmentation sphere                          
   RDEP   =    1.550    radius for radial grids                                 
   RDEPT  =    1.329    core radius for aug-charge                              
                                                                                
   Atomic configuration                                                         
    4 entries                                                                   
     n  l   j            E        occ.                                          
     1  0  0.50      -514.6923   2.0000                                         
     2  0  0.50       -23.9615   2.0000                                         
     2  1  0.50        -9.0305   4.0000                                         
     3  2  1.50        -9.5241   0.0000                                         
   Description                                                                  
     l       E           TYP  RCUT    TYP  RCUT                                 
     0    -23.9615318     23  1.200                                             
     0     -9.5240782     23  1.200                                             
     1     -9.0304911     23  1.520                                             
     1      8.1634956     23  1.520                                             
     2     -9.5240782      7  1.500                                             
  local pseudopotential read in
  partial core-charges read in
  partial kinetic energy density read in
  kinetic energy density of atom read in
  atomic valenz-charges read in
  non local Contribution for L=           0  read in
    real space projection operators read in
  non local Contribution for L=           0  read in
    real space projection operators read in
  non local Contribution for L=           1  read in
    real space projection operators read in
  non local Contribution for L=           1  read in
    real space projection operators read in
    PAW grid and wavefunctions read in
 
   number of l-projection  operators is LMAX  =           4
   number of lm-projection operators is LMMAX =           8
 
 POTCAR:    PAW_PBE Li 17Jan2003                  
   VRHFIN =Li: s1p0                                                             
   LEXCH  = PE                                                                  
   EATOM  =     5.3001 eV,    0.3895 Ry                                         
                                                                                
   TITEL  = PAW_PBE Li 17Jan2003                                                
   LULTRA =        F    use ultrasoft PP ?                                      
   IUNSCR =        1    unscreen: 0-lin 1-nonlin 2-no                           
   RPACOR =    1.500    partial core radius                                     
   POMASS =    7.010; ZVAL   =    1.000    mass and valenz                      
   RCORE  =    2.050    outmost cutoff radius                                   
   RWIGS  =    2.600; RWIGS  =    1.376    wigner-seitz radius (au A)           
   ENMAX  =  140.000; ENMIN  =  100.000 eV                                      
   ICORE  =        2    local potential                                         
   LCOR   =        T    correct aug charges                                     
   LPAW   =        T    paw PP                                                  
   EAUG   =  331.638                                                            
   DEXC   =    0.000                                                            
   RMAX   =    2.098    core radius for proj-oper                               
   RAUG   =    1.300    factor for augmentation sphere                          
   RDEP   =    2.094    radius for radial grids                                 
   RDEPT  =    1.810    core radius for aug-charge                              
                                                                                
   Atomic configuration                                                         
    4 entries                                                                   
     n  l   j            E        occ.                                          
     1  0  0.50       -51.8549   2.0000                                         
     2  0  0.50        -2.8742   1.0000                                         
     2  1  0.50        -1.3606   0.0000                                         
     3  2  1.50        -1.3606   0.0000                                         
   Description                                                                  
     l       E           TYP  RCUT    TYP  RCUT                                 
     0     -2.8742052     23  2.050                                             
     0     27.2116520     23  2.050                                             
     1     -1.3605826     23  2.050                                             
     2     -1.3605826     23  2.050                                             
  local pseudopotential read in
  partial core-charges read in
  partial kinetic energy density read in
  atomic valenz-charges read in
  non local Contribution for L=           0  read in
    real space projection operators read in
  non local Contribution for L=           0  read in
    real space projection operators read in
  non local Contribution for L=           1  read in
    real space projection operators read in
    PAW grid and wavefunctions read in
 
   number of l-projection  operators is LMAX  =           3
   number of lm-projection operators is LMMAX =           5
 
 Optimization of the real space projectors (new method)

 maximal supplied QI-value         = 16.25
 optimisation between [QCUT,QGAM] = [ 12.51, 25.03] = [ 43.85,175.40] Ry 
 Optimized for a Real-space Cutoff    1.31 Angstroem

   l    n(q)    QCUT    max X(q) W(low)/X(q) W(high)/X(q)  e(spline) 
   2      9    12.514    65.824    0.30E-03    0.46E-03    0.43E-06
   2      9    12.514    61.429    0.31E-03    0.46E-03    0.44E-06
   0     10    12.514    56.174    0.90E-04    0.33E-03    0.30E-06
   0     10    12.514    31.263    0.81E-04    0.30E-03    0.28E-06
   1      9    12.514    19.828    0.38E-03    0.65E-04    0.24E-06
   1      9    12.514    15.139    0.32E-03    0.60E-04    0.20E-06
 Optimization of the real space projectors (new method)

 maximal supplied QI-value         = 24.76
 optimisation between [QCUT,QGAM] = [ 12.38, 25.00] = [ 42.90,175.06] Ry 
 Optimized for a Real-space Cutoff    1.13 Angstroem

   l    n(q)    QCUT    max X(q) W(low)/X(q) W(high)/X(q)  e(spline) 
   0      8    12.378    20.381    0.16E-03    0.54E-05    0.27E-06
   0      8    12.378    15.268    0.17E-03    0.61E-05    0.29E-06
   1      8    12.378     5.964    0.38E-03    0.23E-03    0.28E-06
   1      8    12.378     5.382    0.33E-03    0.20E-03    0.25E-06
 Optimization of the real space projectors (new method)

 maximal supplied QI-value         = 18.33
 optimisation between [QCUT,QGAM] = [ 12.46, 24.93] = [ 43.51,174.03] Ry 
 Optimized for a Real-space Cutoff    1.13 Angstroem

   l    n(q)    QCUT    max X(q) W(low)/X(q) W(high)/X(q)  e(spline) 
   0      8    12.465    33.825    0.12E-03    0.29E-03    0.99E-07
   0      8    12.465     8.944    0.86E-04    0.22E-03    0.72E-07
   1      8    12.465     4.214    0.27E-03    0.11E-03    0.82E-07
  PAW_PBE Co 02Aug2007                  :
 energy of atom  1       EATOM= -813.3670
 kinetic energy error for atom=    0.0018 (will be added to EATOM!!)
  PAW_PBE O 08Apr2002                   :
 energy of atom  2       EATOM= -432.3788
 kinetic energy error for atom=    0.0168 (will be added to EATOM!!)
  PAW_PBE Li 17Jan2003                  :
 energy of atom  3       EATOM=   -5.3001
 kinetic energy error for atom=    0.0000 (will be added to EATOM!!)
 
 
 POSCAR: Co  O Li                                
  positions in cartesian coordinates
  No initial velocities read in
 exchange correlation table for  LEXCH =        8
   RHO(1)=    0.500       N(1)  =     2000
   RHO(2)=  100.500       N(2)  =     4000

 VTST: version 3.1, (03/28/14)

 CHAIN: initializing optimizer
 
 OPT: Using VASP Conjugate-Gradient optimizer
 CHAIN: Read ICHAIN            0
 
 POSCAR: Co  O Li                                
  positions in cartesian coordinates
  No initial velocities read in
 


--------------------------------------------------------------------------------------------------------


 ion  position               nearest neighbor table
   1  0.180  0.345  0.171-  19 1.86  25 1.88  20 1.88  13 1.89  14 1.89  32 1.91   4 2.79   7 2.79
                             4 2.80  10 2.80   7 2.81  10 2.81  37 2.85  42 2.89  39 2.93
   2  0.014  0.015  0.503-  33 1.89  15 1.89  21 1.90  34 1.90  28 1.91  16 1.92  38 2.79   5 2.79
                             5 2.79   8 2.79   8 2.80  11 2.80  11 2.81  40 2.87  37 2.88
   3  0.340  0.182  0.834-  24 1.88  29 1.89  30 1.89  17 1.89  35 1.90  18 1.90   6 2.78   9 2.79
                             6 2.80  12 2.80   9 2.80  12 2.81  38 2.82  39 2.84  42 2.86  41 2.92
   4  0.181  0.845  0.164-  26 1.89  20 1.89  19 1.89  14 1.90  31 1.92  13 1.92   1 2.79  10 2.79
                            39 2.79   1 2.80   7 2.80  10 2.81   7 2.81  40 2.87  37 2.88
   5  0.015  0.515  0.497-  22 1.89  34 1.89  28 1.90  15 1.90  21 1.91  27 1.92  11 2.79   2 2.79
                             2 2.79   8 2.80  11 2.80   8 2.81  40 2.83  41 2.85  38 2.94
   6  0.341  0.683  0.834-  24 1.86  29 1.88  35 1.88  18 1.90  36 1.90  23 1.91   3 2.78  12 2.80
                             9 2.80   3 2.80  12 2.80   9 2.81  38 2.88  42 2.88
   7  0.681  0.344  0.164-  26 1.86  20 1.88  25 1.88  32 1.89  31 1.89  13 1.91  10 2.79   1 2.79
                            10 2.80   4 2.80   1 2.81   4 2.81  42 2.85  37 2.91  40 2.91
   8  0.514  0.014  0.500-  22 1.87  33 1.88  28 1.89  21 1.89  16 1.90  27 1.90  11 2.78   2 2.79
                             5 2.80   2 2.80  11 2.80   5 2.81  37 2.85  41 2.89
   9  0.839  0.182  0.837-  17 1.86  30 1.86  29 1.87  23 1.89  36 1.90  18 1.90   3 2.79  12 2.79
                            12 2.79   6 2.80   3 2.80   6 2.81  38 2.86  39 2.92  41 2.94
  10  0.680  0.845  0.170-  19 1.89  25 1.89  26 1.89  31 1.90  14 1.92  32 1.92   7 2.79   4 2.79
                             7 2.80   1 2.80   1 2.81   4 2.81  40 2.83  42 2.87  39 2.90
  11  0.514  0.516  0.500-  15 1.86  34 1.86  22 1.87  33 1.87  27 1.89  16 1.89   8 2.78   5 2.79
                             8 2.80   5 2.80   2 2.80   2 2.81  41 2.82  37 2.87  40 2.88  38 2.92
  12  0.841  0.683  0.831-  24 1.89  30 1.89  17 1.90  36 1.90  23 1.91  35 1.92  41 2.79   9 2.79
                             9 2.79   6 2.80   6 2.80   3 2.80   3 2.81  39 2.84  42 2.88
  13  0.344  0.184  0.095-   1 1.89   7 1.91   4 1.92  39 2.09  42 2.10
  14  0.019  0.012  0.239-   1 1.89   4 1.90  10 1.92  40 2.08  37 2.08
  15  0.189  0.344  0.432-  11 1.86   2 1.89   5 1.90  37 2.09
  16  0.354  0.188  0.572-  11 1.89   8 1.90   2 1.92  38 2.10  41 2.10
  17  0.005  0.023  0.766-   9 1.86   3 1.89  12 1.90  38 2.03
  18  0.176  0.353  0.905-   9 1.90   6 1.90   3 1.90  42 2.12  39 2.20
  19  0.350  0.667  0.100-   1 1.86  10 1.89   4 1.89  42 2.05
  20  0.007  0.515  0.235-   7 1.88   1 1.88   4 1.89  40 2.09
  21  0.184  0.855  0.430-   8 1.89   2 1.90   5 1.91  37 2.06  40 2.11
  22  0.345  0.682  0.567-  11 1.87   8 1.87   5 1.89  38 2.24
  23  0.008  0.505  0.763-   9 1.89   6 1.91  12 1.91  38 2.08  41 2.09
  24  0.171  0.847  0.901-   6 1.86   3 1.88  12 1.89  39 2.03
  25  0.854  0.175  0.100-   1 1.88   7 1.88  10 1.89  39 2.15
  26  0.511  0.023  0.234-   7 1.86   4 1.89  10 1.89  37 2.07
  27  0.675  0.345  0.429-  11 1.89   8 1.90   5 1.92  37 2.09  40 2.15
  28  0.844  0.189  0.570-   8 1.89   5 1.90   2 1.91  41 2.09  38 2.10
  29  0.514  0.016  0.767-   9 1.87   6 1.88   3 1.89  41 2.24
  30  0.673  0.354  0.902-   9 1.86   3 1.89  12 1.89  42 2.09
  31  0.842  0.677  0.096-   7 1.89  10 1.90   4 1.92  39 2.06  42 2.10
  32  0.517  0.505  0.239-   7 1.89   1 1.91  10 1.92  37 2.11  40 2.12
  33  0.684  0.847  0.433-  11 1.87   8 1.88   2 1.89  40 2.12
  34  0.841  0.675  0.568-  11 1.86   5 1.89   2 1.90  41 2.03
  35  0.501  0.513  0.763-   6 1.88   3 1.90  12 1.92  38 2.10  41 2.11
  36  0.673  0.845  0.905-   9 1.90  12 1.90   6 1.90  42 2.10  39 2.16
  37  0.345  0.173  0.334-  21 2.06  26 2.07  14 2.08  15 2.09  27 2.09  32 2.11  40 2.74   1 2.85
                             8 2.85  11 2.87  40 2.87   2 2.88   4 2.88   7 2.91
  38  0.166  0.330  0.669-  17 2.03  23 2.08  16 2.10  35 2.10  28 2.10  22 2.24  41 2.79   2 2.79
                             3 2.82  41 2.82   9 2.86   6 2.88  11 2.92   5 2.94
  39  0.016  0.997  0.001-  24 2.03  31 2.06  13 2.09  25 2.15  36 2.16  18 2.20  42 2.77   4 2.79
                            12 2.84   3 2.84  42 2.85  10 2.90   9 2.92   1 2.93
  40  0.855  0.687  0.334-  14 2.08  20 2.09  21 2.11  33 2.12  32 2.12  27 2.15  37 2.74  10 2.83
                             5 2.83   4 2.87   2 2.87  37 2.87  11 2.88   7 2.91
  41  0.688  0.368  0.665-  34 2.03  23 2.09  28 2.09  16 2.10  35 2.11  29 2.24  12 2.79  38 2.79
                            38 2.82  11 2.82   5 2.85   8 2.89   3 2.92   9 2.94
  42  0.512  0.516  0.001-  19 2.05  30 2.09  31 2.10  13 2.10  36 2.10  18 2.12  39 2.77  39 2.85
                             7 2.85   3 2.86  10 2.87  12 2.88   6 2.88   1 2.89
 
  LATTYP: Found a triclinic cell.
 ALAT       =     5.5846853646
 B/A-ratio  =     1.0049567940
 C/A-ratio  =     2.5334700484
 COS(alpha) =     0.0021768118
 COS(beta)  =     0.0110501473
 COS(gamma) =     0.5004293929
  
  Lattice vectors:
  
 A1 = (  -2.7840306382,   4.8411765666,  -0.0298911200)
 A2 = (   2.8120849779,   4.8570306156,  -0.0100313927)
 A3 = (  -0.0750677178,   0.0498296206, -14.1483462097)


Analysis of symmetry for initial positions (statically):
=====================================================================
 Subroutine PRICEL returns:
 Original cell was already a primitive cell.
 

 Routine SETGRP: Setting up the symmetry group for a 
 triclinic supercell.


 Subroutine GETGRP returns: Found  1 space group operations
 (whereof  1 operations were pure point group operations)
 out of a pool of  2 trial point group operations.


The static configuration has the point symmetry C_1 .


Analysis of symmetry for dynamics (positions and initial velocities):
=====================================================================
 Subroutine PRICEL returns:
 Original cell was already a primitive cell.
 

 Routine SETGRP: Setting up the symmetry group for a 
 triclinic supercell.


 Subroutine GETGRP returns: Found  1 space group operations
 (whereof  1 operations were pure point group operations)
 out of a pool of  2 trial point group operations.


The dynamic configuration has the point symmetry C_1 .


Analysis of structural, dynamic, and magnetic symmetry:
=====================================================================
 Subroutine PRICEL returns:
 Original cell was already a primitive cell.
 

 Routine SETGRP: Setting up the symmetry group for a 
 triclinic supercell.


 Subroutine GETGRP returns: Found  1 space group operations
 (whereof  1 operations were pure point group operations)
 out of a pool of  2 trial point group operations.


The magnetic configuration has the point symmetry C_1 .


 Subroutine INISYM returns: Found  1 space group operations
 (whereof  1 operations are pure point group operations),
 and found     1 'primitive' translations

 
 
 KPOINTS: KPOINTS created by Atomic Simulation Env

Automatic generation of k-mesh.
Space group operators:
 irot       det(A)        alpha          n_x          n_y          n_z        tau_x        tau_y        tau_z
    1     1.000000     0.000000     1.000000     0.000000     0.000000     0.000000     0.000000     0.000000
 
 Subroutine IBZKPT returns following result:
 ===========================================
 
 Found     40 irreducible k-points:
 
 Following reciprocal coordinates:
            Coordinates               Weight
  0.000000  0.000000  0.000000      1.000000
  0.166667  0.000000  0.000000      2.000000
  0.333333  0.000000  0.000000      2.000000
  0.500000  0.000000  0.000000      1.000000
  0.000000  0.166667 -0.000000      2.000000
  0.166667  0.166667  0.000000      2.000000
  0.333333  0.166667  0.000000      2.000000
  0.500000  0.166667  0.000000      2.000000
 -0.333333  0.166667 -0.000000      2.000000
 -0.166667  0.166667 -0.000000      2.000000
  0.000000  0.333333 -0.000000      2.000000
  0.166667  0.333333 -0.000000      2.000000
  0.333333  0.333333  0.000000      2.000000
  0.500000  0.333333  0.000000      2.000000
 -0.333333  0.333333 -0.000000      2.000000
 -0.166667  0.333333 -0.000000      2.000000
  0.000000  0.500000  0.000000      1.000000
  0.166667  0.500000  0.000000      2.000000
  0.333333  0.500000 -0.000000      2.000000
  0.500000  0.500000  0.000000      1.000000
 -0.000000  0.000000  0.500000      1.000000
  0.166667  0.000000  0.500000      2.000000
  0.333333  0.000000  0.500000      2.000000
  0.500000  0.000000  0.500000      1.000000
  0.000000  0.166667  0.500000      2.000000
  0.166667  0.166667  0.500000      2.000000
  0.333333  0.166667  0.500000      2.000000
  0.500000  0.166667  0.500000      2.000000
 -0.333333  0.166667  0.500000      2.000000
 -0.166667  0.166667  0.500000      2.000000
 -0.000000  0.333333  0.500000      2.000000
  0.166667  0.333333  0.500000      2.000000
  0.333333  0.333333  0.500000      2.000000
  0.500000  0.333333  0.500000      2.000000
 -0.333333  0.333333  0.500000      2.000000
 -0.166667  0.333333  0.500000      2.000000
  0.000000  0.500000  0.500000      1.000000
  0.166667  0.500000  0.500000      2.000000
  0.333333  0.500000  0.500000      2.000000
  0.500000  0.500000  0.500000      1.000000
 
 Following cartesian coordinates:
            Coordinates               Weight
  0.000000  0.000000  0.000000      1.000000
  0.029734  0.017099 -0.000098      2.000000
  0.059469  0.034198 -0.000195      2.000000
  0.089203  0.051297 -0.000293      1.000000
 -0.000098  0.034371  0.000122      2.000000
  0.029637  0.051470  0.000024      2.000000
  0.059371  0.068569 -0.000074      2.000000
  0.089106  0.085668 -0.000171      2.000000
 -0.059567  0.000174  0.000317      2.000000
 -0.029832  0.017273  0.000219      2.000000
 -0.000196  0.068743  0.000243      2.000000
  0.029539  0.085842  0.000146      2.000000
  0.059273  0.102941  0.000048      2.000000
  0.089008  0.120039 -0.000049      2.000000
 -0.059665  0.034545  0.000438      2.000000
 -0.029930  0.051644  0.000341      2.000000
 -0.000293  0.103114  0.000365      1.000000
  0.029441  0.120213  0.000267      2.000000
  0.059176  0.137312  0.000170      2.000000
  0.088910  0.154411  0.000072      1.000000
 -0.000126  0.000146  0.035341      1.000000
  0.029609  0.017245  0.035243      2.000000
  0.059343  0.034344  0.035146      2.000000
  0.089078  0.051443  0.035048      1.000000
 -0.000224  0.034517  0.035463      2.000000
  0.029511  0.051616  0.035365      2.000000
  0.059245  0.068715  0.035267      2.000000
  0.088980  0.085814  0.035170      2.000000
 -0.059693  0.000319  0.035658      2.000000
 -0.029958  0.017418  0.035560      2.000000
 -0.000321  0.068889  0.035584      2.000000
  0.029413  0.085988  0.035487      2.000000
  0.059147  0.103086  0.035389      2.000000
  0.088882  0.120185  0.035292      2.000000
 -0.059790  0.034691  0.035779      2.000000
 -0.030056  0.051790  0.035682      2.000000
 -0.000419  0.103260  0.035706      1.000000
  0.029315  0.120359  0.035608      2.000000
  0.059050  0.137458  0.035511      2.000000
  0.088784  0.154557  0.035413      1.000000
 


--------------------------------------------------------------------------------------------------------




 Dimension of arrays:
   k-points           NKPTS =     40   k-points in BZ     NKDIM =     40   number of bands    NBANDS=    180
   number of dos      NEDOS =    301   number of ions     NIONS =     42
   non local maximal  LDIM  =      6   non local SUM 2l+1 LMDIM =     18
   total plane-waves  NPLWV = 116640
   max r-space proj   IRMAX =   2889   max aug-charges    IRDMAX=  12180
   dimension x,y,z NGX =    36 NGY =   36 NGZ =   90
   dimension x,y,z NGXF=    72 NGYF=   72 NGZF=  180
   support grid    NGXF=    72 NGYF=   72 NGZF=  180
   ions per type =              12  24   6
 NGX,Y,Z   is equivalent  to a cutoff of  10.69, 10.72, 10.57 a.u.
 NGXF,Y,Z  is equivalent  to a cutoff of  21.39, 21.43, 21.15 a.u.


 I would recommend the setting:
   dimension x,y,z NGX =    34 NGY =   33 NGZ =   85
 SYSTEM =  unknown system                          
 POSCAR =  Co  O Li                                

 Startparameter for this run:
   NWRITE =      2    write-flag & timer
   PREC   = normal    normal or accurate (medium, high low for compatibility)
   ISTART =      0    job   : 0-new  1-cont  2-samecut
   ICHARG =      2    charge: 1-file 2-atom 10-const
   ISPIN  =      2    spin polarized calculation?
   LNONCOLLINEAR =      F non collinear calculations
   LSORBIT =      F    spin-orbit coupling
   INIWAV =      1    electr: 0-lowe 1-rand  2-diag
   LASPH  =      F    aspherical Exc in radial PAW
   METAGGA=      F    non-selfconsistent MetaGGA calc.

 Electronic Relaxation 1
   ENCUT  =  600.0 eV  44.10 Ry    6.64 a.u.  11.18 11.15 28.26*2*pi/ulx,y,z
   ENINI  =  600.0     initial cutoff
   ENAUG  =  605.4 eV  augmentation charge cutoff
   NELM   =    500;   NELMIN=  2; NELMDL=  0     # of ELM steps 
   EDIFF  = 0.1E-05   stopping-criterion for ELM
   LREAL  =      T    real-space projection
   NLSPLINE    = F    spline interpolate recip. space projectors
   LCOMPAT=      F    compatible to vasp.4.4
   GGA_COMPAT  = T    GGA compatible to vasp.4.4-vasp.4.6
   LMAXPAW     = -100 max onsite density
   LMAXMIX     =    4 max onsite mixed and CHGCAR
   VOSKOWN=      0    Vosko Wilk Nusair interpolation
   ROPT   =   -0.00050  -0.00050  -0.00050
 Ionic relaxation
   EDIFFG = -.1E-01   stopping-criterion for IOM
   NSW    =    500    number of steps for IOM
   NBLOCK =      1;   KBLOCK =    500    inner block; outer block 
   IBRION =      2    ionic relax: 0-MD 1-quasi-New 2-CG
   NFREE  =      1    steps in history (QN), initial steepest desc. (CG)
   ISIF   =      3    stress and relaxation
   IWAVPR =     11    prediction:  0-non 1-charg 2-wave 3-comb
   ISYM   =      2    0-nonsym 1-usesym 2-fastsym
   LCORR  =      T    Harris-Foulkes like correction to forces

   POTIM  = 0.5000    time-step for ionic-motion
   TEIN   =    0.0    initial temperature
   TEBEG  =    0.0;   TEEND  =   0.0 temperature during run
   SMASS  =  -3.00    Nose mass-parameter (am)
   estimated Nose-frequenzy (Omega)   =  0.10E-29 period in steps =****** mass=  -0.716E-27a.u.
   SCALEE = 1.0000    scale energy and forces
   NPACO  =    256;   APACO  = 16.0  distance and # of slots for P.C.
   PSTRESS=    0.0 pullay stress

  Mass of Ions in am
   POMASS =  58.93 16.00  7.01
  Ionic Valenz
   ZVAL   =   9.00  6.00  1.00
  Atomic Wigner-Seitz radii
   RWIGS  =  -1.00 -1.00 -1.00
  virtual crystal weights 
   VCA    =   1.00  1.00  1.00
   NELECT =     258.0000    total number of electrons
   NUPDOWN=      -1.0000    fix difference up-down

 DOS related values:
   EMIN   =  10.00;   EMAX   =-10.00  energy-range for DOS
   EFERMI =   0.00
   ISMEAR =     0;   SIGMA  =   0.03  broadening in eV -4-tet -1-fermi 0-gaus

 Electronic relaxation 2 (details)
   IALGO  =     48    algorithm
   LDIAG  =      T    sub-space diagonalisation (order eigenvalues)
   LSUBROT=      F    optimize rotation matrix (better conditioning)
   TURBO    =      0    0=normal 1=particle mesh
   IRESTART =      0    0=no restart 2=restart with 2 vectors
   NREBOOT  =      0    no. of reboots
   NMIN     =      0    reboot dimension
   EREF     =   0.00    reference energy to select bands
   IMIX   =      4    mixing-type and parameters
     AMIX     =   0.40;   BMIX     =  1.00
     AMIX_MAG =   1.60;   BMIX_MAG =  1.00
     AMIN     =   0.10
     WC   =   100.;   INIMIX=   1;  MIXPRE=   1;  MAXMIX= -45

 Intra band minimization:
   WEIMIN = 0.0010     energy-eigenvalue tresh-hold
   EBREAK =  0.14E-08  absolut break condition
   DEPER  =   0.30     relativ break condition  

   TIME   =   0.40     timestep for ELM

  volume/ion in A,a.u.               =       9.14        61.69
  Fermi-wavevector in a.u.,A,eV,Ry     =   1.433957  2.709786 27.976747  2.056233
  Thomas-Fermi vector in A             =   2.553418
 
 Write flags
   LWAVE  =      F    write WAVECAR
   LCHARG =      F    write CHGCAR
   LVTOT  =      F    write LOCPOT, total local potential
   LVHAR  =      F    write LOCPOT, Hartree potential only
   LELF   =      F    write electronic localiz. function (ELF)
   LORBIT =      0    0 simple, 1 ext, 2 COOP (PROOUT)


 Dipole corrections
   LMONO  =      F    monopole corrections only (constant potential shift)
   LDIPOL =      F    correct potential (dipole corrections)
   IDIPOL =      0    1-x, 2-y, 3-z, 4-all directions 
   EPSILON=  1.0000000 bulk dielectric constant

 LDA+U is selected, type is set to LDAUTYPE =  2
   angular momentum for each species LDAUL =     2   -1   -1
   U (eV)           for each species LDAUU =   3.3  0.0  0.0
   J (eV)           for each species LDAUJ =   0.0  0.0  0.0
 Exchange correlation treatment:
   GGA     =    PE    GGA type
   LEXCH   =     8    internal setting for exchange type
   VOSKOWN=      0    Vosko Wilk Nusair interpolation
   LHFCALC =     F    Hartree Fock is set to
   LHFONE  =     F    Hartree Fock one center treatment
   AEXX    =    0.0000 exact exchange contribution

 Linear response parameters
   LEPSILON=     F    determine dielectric tensor
   LRPA    =     F    only Hartree local field effects (RPA)
   LNABLA  =     F    use nabla operator in PAW spheres
   LVEL    =     F    velocity operator in full k-point grid
   LINTERFAST=   F  fast interpolation
   KINTER  =     0    interpolate to denser k-point grid
   CSHIFT  =0.1000    complex shift for real part using Kramers Kronig
   OMEGAMAX=  -1.0    maximum frequency
   DEG_THRESHOLD= 0.2000000E-02 threshold for treating states as degnerate
   RTIME   =    0.100 relaxation time in fs

 Orbital magnetization related:
   ORBITALMAG=     F  switch on orbital magnetization
   LCHIMAG   =     F  perturbation theory with respect to B field
   DQ        =  0.001000  dq finite difference perturbation B field



--------------------------------------------------------------------------------------------------------


 conjugate gradient relaxation of ions
 charge density and potential will be updated during run
 spin polarized calculation
 RMM-DIIS sequential band-by-band
 perform sub-space diagonalisation
    before iterative eigenvector-optimisation
 modified Broyden-mixing scheme, WC =      100.0
 initial mixing is a Kerker type mixing with AMIX =  0.4000 and BMIX =      1.0000
 Hartree-type preconditioning will be used
 using additional bands           51
 real space projection scheme for non local part
 use partial core corrections
 calculate Harris-corrections to forces 
   (improved forces if not selfconsistent)
 use gradient corrections 
 use of overlap-Matrix (Vanderbilt PP)
 Gauss-broadening in eV      SIGMA  =   0.03


--------------------------------------------------------------------------------------------------------


  energy-cutoff  :      600.00
  volume of cell :      383.92
      direct lattice vectors                 reciprocal lattice vectors
     5.596115616  0.015854049  0.019859727     0.178406804  0.102593349 -0.000585256
    -2.784030638  4.841176567 -0.029891120    -0.000586843  0.206228383  0.000729438
     0.075067718 -0.049829621 14.148346210    -0.000251666  0.000291689  0.070682001

  length of vectors
     5.596173313  5.584685365 14.148633101     0.205802637  0.206230508  0.070683051


 
 k-points in units of 2pi/SCALE and weight: KPOINTS created by Atomic Simulation Env
   0.00000000  0.00000000  0.00000000       0.014
   0.02973447  0.01709889 -0.00009754       0.028
   0.05946893  0.03419778 -0.00019509       0.028
   0.08920340  0.05129667 -0.00029263       0.014
  -0.00009781  0.03437140  0.00012157       0.028
   0.02963666  0.05147029  0.00002403       0.028
   0.05937113  0.06856918 -0.00007351       0.028
   0.08910559  0.08566807 -0.00017106       0.028
  -0.05956674  0.00017361  0.00031666       0.028
  -0.02983227  0.01727251  0.00021912       0.028
  -0.00019561  0.06874279  0.00024315       0.028
   0.02953885  0.08584169  0.00014560       0.028
   0.05927332  0.10294058  0.00004806       0.028
   0.08900779  0.12003947 -0.00004948       0.028
  -0.05966455  0.03454501  0.00043823       0.028
  -0.02993008  0.05164390  0.00034069       0.028
  -0.00029342  0.10311419  0.00036472       0.014
   0.02944105  0.12021308  0.00026718       0.028
   0.05917551  0.13731197  0.00016963       0.028
   0.08890998  0.15441087  0.00007209       0.014
  -0.00012583  0.00014584  0.03534100       0.014
   0.02960863  0.01724474  0.03524346       0.028
   0.05934310  0.03434363  0.03514592       0.028
   0.08907757  0.05144252  0.03504837       0.014
  -0.00022364  0.03451724  0.03546257       0.028
   0.02951083  0.05161613  0.03536503       0.028
   0.05924529  0.06871502  0.03526749       0.028
   0.08897976  0.08581392  0.03516995       0.028
  -0.05969257  0.00031946  0.03565766       0.028
  -0.02995811  0.01741835  0.03556012       0.028
  -0.00032145  0.06888864  0.03558415       0.028
   0.02941302  0.08598753  0.03548660       0.028
   0.05914749  0.10308642  0.03538906       0.028
   0.08888195  0.12018531  0.03529152       0.028
  -0.05979038  0.03469086  0.03577923       0.028
  -0.03005591  0.05178975  0.03568169       0.028
  -0.00041925  0.10326004  0.03570572       0.014
   0.02931521  0.12035893  0.03560818       0.028
   0.05904968  0.13745782  0.03551063       0.028
   0.08878415  0.15455671  0.03541309       0.014
 
 k-points in reciprocal lattice and weights: KPOINTS created by Atomic Simulation Env
   0.00000000  0.00000000  0.00000000       0.014
   0.16666667  0.00000000  0.00000000       0.028
   0.33333333  0.00000000  0.00000000       0.028
   0.50000000  0.00000000  0.00000000       0.014
   0.00000000  0.16666667 -0.00000000       0.028
   0.16666667  0.16666667  0.00000000       0.028
   0.33333333  0.16666667  0.00000000       0.028
   0.50000000  0.16666667  0.00000000       0.028
  -0.33333333  0.16666667 -0.00000000       0.028
  -0.16666667  0.16666667 -0.00000000       0.028
   0.00000000  0.33333333 -0.00000000       0.028
   0.16666667  0.33333333 -0.00000000       0.028
   0.33333333  0.33333333  0.00000000       0.028
   0.50000000  0.33333333  0.00000000       0.028
  -0.33333333  0.33333333 -0.00000000       0.028
  -0.16666667  0.33333333 -0.00000000       0.028
   0.00000000  0.50000000  0.00000000       0.014
   0.16666667  0.50000000  0.00000000       0.028
   0.33333333  0.50000000 -0.00000000       0.028
   0.50000000  0.50000000  0.00000000       0.014
  -0.00000000  0.00000000  0.50000000       0.014
   0.16666667  0.00000000  0.50000000       0.028
   0.33333333  0.00000000  0.50000000       0.028
   0.50000000  0.00000000  0.50000000       0.014
   0.00000000  0.16666667  0.50000000       0.028
   0.16666667  0.16666667  0.50000000       0.028
   0.33333333  0.16666667  0.50000000       0.028
   0.50000000  0.16666667  0.50000000       0.028
  -0.33333333  0.16666667  0.50000000       0.028
  -0.16666667  0.16666667  0.50000000       0.028
  -0.00000000  0.33333333  0.50000000       0.028
   0.16666667  0.33333333  0.50000000       0.028
   0.33333333  0.33333333  0.50000000       0.028
   0.50000000  0.33333333  0.50000000       0.028
  -0.33333333  0.33333333  0.50000000       0.028
  -0.16666667  0.33333333  0.50000000       0.028
   0.00000000  0.50000000  0.50000000       0.014
   0.16666667  0.50000000  0.50000000       0.028
   0.33333333  0.50000000  0.50000000       0.028
   0.50000000  0.50000000  0.50000000       0.014
 
 position of ions in fractional coordinates (direct lattice) 
   0.18024213  0.34547330  0.17057349
   0.01426378  0.01539505  0.50313556
   0.34006986  0.18173650  0.83368954
   0.18147462  0.84461713  0.16412086
   0.01494582  0.51540163  0.49728813
   0.34058722  0.68341042  0.83397729
   0.68100981  0.34407370  0.16383726
   0.51437383  0.01411240  0.50034848
   0.83926013  0.18227970  0.83725569
   0.67993144  0.84506805  0.17039524
   0.51418173  0.51609814  0.50034114
   0.84061510  0.68264151  0.83094570
   0.34391185  0.18433753  0.09526257
   0.01929681  0.01241003  0.23886395
   0.18865195  0.34427861  0.43202860
   0.35383366  0.18828518  0.57196884
   0.00523368  0.02322239  0.76581657
   0.17556650  0.35281193  0.90510099
   0.35017358  0.66732717  0.10024484
   0.00703097  0.51477642  0.23461563
   0.18434771  0.85465408  0.42997298
   0.34534342  0.68227637  0.56729314
   0.00756548  0.50531890  0.76330719
   0.17072883  0.84745550  0.90064174
   0.85440987  0.17492939  0.09990260
   0.51124195  0.02253587  0.23424198
   0.67498805  0.34513598  0.42894356
   0.84445828  0.18933838  0.57039891
   0.51409247  0.01601465  0.76687155
   0.67338562  0.35412177  0.90184124
   0.84199770  0.67719440  0.09556100
   0.51737180  0.50536383  0.23897557
   0.68369759  0.84726398  0.43295625
   0.84083609  0.67511939  0.56849532
   0.50113168  0.51267843  0.76257248
   0.67257199  0.84529353  0.90456405
   0.34519340  0.17345955  0.33417529
   0.16638754  0.33030104  0.66913467
   0.01585639  0.99726839  0.00080935
   0.85506344  0.68670785  0.33355704
   0.68819613  0.36773376  0.66537212
   0.51159072  0.51635410  0.00064296
 
 position of ions in cartesian coordinates  (Angst):
   0.05965214  1.66685518  2.40658579
   0.07473071  0.04968526  7.11835918
   1.45969343  0.84366756 11.79664965
  -1.32356684  4.08363969  2.30039630
  -1.31392510  2.47060755  7.02069545
   0.06593470  3.27235344 11.78573545
   2.86539682  1.66835434  2.32126625
   2.87676610  0.05154335  7.08889697
   4.25197530  0.85403377 11.85700225
   1.46507079  4.09341256  2.39905408
   1.47814688  2.48174226  7.07378442
   2.86606160  3.27670954 11.75279696
   1.41852031  0.89311603  1.34912770
   0.09136826  0.04848256  3.37954217
   0.12966730  1.64817663  6.10594589
   1.49883876  0.88863053  8.09381216
   0.02212452  0.07434629 10.83444780
   0.06819506  1.66570745 12.79862296
   0.10927768  3.23120518  1.40530595
  -1.37619513  2.48054422  3.30417560
  -1.31547494  4.11902857  6.06152113
   0.07568879  3.28022748  8.01272422
  -1.30718629  2.40842267 10.78458006
  -1.33631465  4.06050979 12.72065040
   4.30186710  0.85543180  1.42519613
   2.81581253  0.10553318  3.32361615
   2.84864185  1.66019143  6.07193052
   4.24138087  0.90158585  8.08131236
   2.88990289  0.04746729 10.85969519
   2.85015713  1.68010347 12.76235020
   2.83376006  3.28700495  1.34850982
   1.50626341  2.44284990  3.37627809
   1.49974289  4.09101987  6.11386727
   2.86853855  3.25337494  8.03978731
   1.43432294  2.45191306 10.78376733
   1.47837110  4.05780416 12.78617573
   1.47391124  0.82856921  4.72969828
   0.06178610  1.56834084  9.46058027
  -2.68763082  4.82816343 -0.01804364
   2.89825751  3.32140915  4.71573540
   2.87739104  1.75801952  9.41659051
   1.42542347  2.50784012  0.00382246
 


--------------------------------------------------------------------------------------------------------


 k-point  1 :   0.0000 0.0000 0.0000  plane waves:   12837
 k-point  2 :   0.1667 0.0000 0.0000  plane waves:   12811
 k-point  3 :   0.3333 0.0000 0.0000  plane waves:   12797
 k-point  4 :   0.5000 0.0000 0.0000  plane waves:   12808
 k-point  5 :   0.0000 0.1667-0.0000  plane waves:   12812
 k-point  6 :   0.1667 0.1667 0.0000  plane waves:   12794
 k-point  7 :   0.3333 0.1667 0.0000  plane waves:   12798
 k-point  8 :   0.5000 0.1667 0.0000  plane waves:   12818
 k-point  9 :  -0.3333 0.1667-0.0000  plane waves:   12809
 k-point 10 :  -0.1667 0.1667-0.0000  plane waves:   12797
 k-point 11 :   0.0000 0.3333-0.0000  plane waves:   12809
 k-point 12 :   0.1667 0.3333-0.0000  plane waves:   12805
 k-point 13 :   0.3333 0.3333 0.0000  plane waves:   12837
 k-point 14 :   0.5000 0.3333 0.0000  plane waves:   12815
 k-point 15 :  -0.3333 0.3333-0.0000  plane waves:   12816
 k-point 16 :  -0.1667 0.3333-0.0000  plane waves:   12812
 k-point 17 :   0.0000 0.5000 0.0000  plane waves:   12800
 k-point 18 :   0.1667 0.5000 0.0000  plane waves:   12815
 k-point 19 :   0.3333 0.5000-0.0000  plane waves:   12823
 k-point 20 :   0.5000 0.5000 0.0000  plane waves:   12818
 k-point 21 :  -0.0000 0.0000 0.5000  plane waves:   12810
 k-point 22 :   0.1667 0.0000 0.5000  plane waves:   12768
 k-point 23 :   0.3333 0.0000 0.5000  plane waves:   12808
 k-point 24 :   0.5000 0.0000 0.5000  plane waves:   12820
 k-point 25 :   0.0000 0.1667 0.5000  plane waves:   12782
 k-point 26 :   0.1667 0.1667 0.5000  plane waves:   12805
 k-point 27 :   0.3333 0.1667 0.5000  plane waves:   12813
 k-point 28 :   0.5000 0.1667 0.5000  plane waves:   12824
 k-point 29 :  -0.3333 0.1667 0.5000  plane waves:   12802
 k-point 30 :  -0.1667 0.1667 0.5000  plane waves:   12796
 k-point 31 :  -0.0000 0.3333 0.5000  plane waves:   12817
 k-point 32 :   0.1667 0.3333 0.5000  plane waves:   12817
 k-point 33 :   0.3333 0.3333 0.5000  plane waves:   12827
 k-point 34 :   0.5000 0.3333 0.5000  plane waves:   12826
 k-point 35 :  -0.3333 0.3333 0.5000  plane waves:   12811
 k-point 36 :  -0.1667 0.3333 0.5000  plane waves:   12798
 k-point 37 :   0.0000 0.5000 0.5000  plane waves:   12838
 k-point 38 :   0.1667 0.5000 0.5000  plane waves:   12827
 k-point 39 :   0.3333 0.5000 0.5000  plane waves:   12830
 k-point 40 :   0.5000 0.5000 0.5000  plane waves:   12822

 maximum and minimum number of plane-waves per node :      1627     1557

 maximum number of plane-waves:     12838
 maximum index in each direction: 
   IXMAX=   11   IYMAX=   11   IZMAX=   28
   IXMIN=  -11   IYMIN=  -11   IZMIN=  -28

 WARNING: aliasing errors must be expected set NGX to  46 to avoid them
 WARNING: aliasing errors must be expected set NGY to  46 to avoid them
 WARNING: aliasing errors must be expected set NGZ to 114 to avoid them
 aliasing errors are usually negligible using standard VASP settings
 and one can safely disregard these warnings

 real space projection operators:
  total allocation   :       7704.30 KBytes
  max/ min on nodes  :       1078.23        845.82


 parallel 3D FFT for wavefunctions:
    minimum data exchange during FFTs selected (reduces bandwidth)
 parallel 3D FFT for charge:
    minimum data exchange during FFTs selected (reduces bandwidth)


 total amount of memory used by VASP on root node   102985. kBytes
========================================================================

   base      :      30000. kBytes
   nonlr-proj:       3362. kBytes
   fftplans  :       1322. kBytes
   grid      :       3603. kBytes
   one-center:        186. kBytes
   wavefun   :      64512. kBytes
 
     INWAV:  cpu time    0.0000: real time    0.0000
 Broyden mixing: mesh for mixing (old mesh)
   NGX = 23   NGY = 23   NGZ = 57
  (NGX  = 72   NGY  = 72   NGZ  =180)
  gives a total of  30153 points

 initial charge density was supplied:
 charge density of overlapping atoms calculated
 number of electron     258.0000000 magnetization      42.0000000
 keeping initial charge density in first step


--------------------------------------------------------------------------------------------------------


 Maximum index for non-local projection operator          470
 Maximum index for augmentation-charges          559 (set IRDMAX)


--------------------------------------------------------------------------------------------------------


 First call to EWALD:  gamma=   0.244
 Maximum number of real-space cells 4x 4x 2
 Maximum number of reciprocal cells 2x 2x 5

 FEWALD executed in parallel
    FEWALD:  cpu time    0.0021: real time    0.0021


----------------------------------------- Iteration    1(   1)  ---------------------------------------


    POTLOK:  cpu time    0.0356: real time    0.0361
    SETDIJ:  cpu time    0.0077: real time    0.0077
    EDDIAG:  cpu time    3.1793: real time    3.2004
  RMM-DIIS:  cpu time    4.0708: real time    4.0999
    ORTHCH:  cpu time    0.7926: real time    0.7976
       DOS:  cpu time    0.0095: real time    0.0096
    --------------------------------------------
      LOOP:  cpu time    8.0990: real time    8.1554

 eigenvalue-minimisations  : 14400
 total energy-change (2. order) : 0.2618989E+04  (-0.1179521E+05)
 number of electron     258.0000000 magnetization      42.0000000
 augmentation part      258.0000000 magnetization      42.0000000

 Free energy of the ion-electron system (eV)
  ---------------------------------------------------
  alpha Z        PSCENC =       763.62293710
  Ewald energy   TEWEN  =    -14117.78693850
  -Hartree energ DENC   =     -6972.72693278
  -exchange      EXHF   =         0.00000000
  -V(xc)+E(xc)   XCENC  =       850.79923756
  PAW double counting   =     17009.71267429   -17545.36899777
  entropy T*S    EENTRO =        -0.01241052
  eigenvalues    EBANDS =      2461.87854029
  atomic energy  EATOM  =     20168.87094289
  Solvation  Ediel_sol  =         0.00000000
  ---------------------------------------------------
  free energy    TOTEN  =      2618.98905256 eV

  energy without entropy =     2619.00146308  energy(sigma->0) =     2618.99525782


--------------------------------------------------------------------------------------------------------




----------------------------------------- Iteration    1(   2)  ---------------------------------------


    EDDIAG:  cpu time    3.1194: real time    3.1499
  RMM-DIIS:  cpu time    3.6595: real time    3.6826
    ORTHCH:  cpu time    0.7523: real time    0.7568
       DOS:  cpu time    0.0091: real time    0.0091
    --------------------------------------------
      LOOP:  cpu time    7.5418: real time    7.6103

 eigenvalue-minimisations  : 14400
 total energy-change (2. order) :-0.1974914E+04  (-0.2291326E+04)
 number of electron     258.0000000 magnetization      42.0000000
 augmentation part      258.0000000 magnetization      42.0000000

 Free energy of the ion-electron system (eV)
  ---------------------------------------------------
  alpha Z        PSCENC =       763.62293710
  Ewald energy   TEWEN  =    -14117.78693850
  -Hartree energ DENC   =     -6972.72693278
  -exchange      EXHF   =         0.00000000
  -V(xc)+E(xc)   XCENC  =       850.79923756
  PAW double counting   =     17009.71267429   -17545.36899777
  entropy T*S    EENTRO =        -0.00440874
  eigenvalues    EBANDS =       486.95610613
  atomic energy  EATOM  =     20168.87094289
  Solvation  Ediel_sol  =         0.00000000
  ---------------------------------------------------
  free energy    TOTEN  =       644.07462017 eV

  energy without entropy =      644.07902891  energy(sigma->0) =      644.07682454


--------------------------------------------------------------------------------------------------------




----------------------------------------- Iteration    1(   3)  ---------------------------------------


    EDDIAG:  cpu time    3.0414: real time    3.0597
  RMM-DIIS:  cpu time    3.6482: real time    3.6844
    ORTHCH:  cpu time    0.7730: real time    0.7777
       DOS:  cpu time    0.0102: real time    0.0102
    --------------------------------------------
      LOOP:  cpu time    7.4744: real time    7.5424

 eigenvalue-minimisations  : 14400
 total energy-change (2. order) :-0.5778515E+03  (-0.5502105E+03)
 number of electron     258.0000000 magnetization      42.0000000
 augmentation part      258.0000000 magnetization      42.0000000

 Free energy of the ion-electron system (eV)
  ---------------------------------------------------
  alpha Z        PSCENC =       763.62293710
  Ewald energy   TEWEN  =    -14117.78693850
  -Hartree energ DENC   =     -6972.72693278
  -exchange      EXHF   =         0.00000000
  -V(xc)+E(xc)   XCENC  =       850.79923756
  PAW double counting   =     17009.71267429   -17545.36899777
  entropy T*S    EENTRO =        -0.02176591
  eigenvalues    EBANDS =       -90.87807048
  atomic energy  EATOM  =     20168.87094289
  Solvation  Ediel_sol  =         0.00000000
  ---------------------------------------------------
  free energy    TOTEN  =        66.22308640 eV

  energy without entropy =       66.24485230  energy(sigma->0) =       66.23396935


--------------------------------------------------------------------------------------------------------




----------------------------------------- Iteration    1(   4)  ---------------------------------------


    EDDIAG:  cpu time    3.0470: real time    3.0650
  RMM-DIIS:  cpu time    3.5375: real time    3.5724
    ORTHCH:  cpu time    0.7979: real time    0.8030
       DOS:  cpu time    0.0102: real time    0.0103
    --------------------------------------------
      LOOP:  cpu time    7.3941: real time    7.4614

 eigenvalue-minimisations  : 14400
 total energy-change (2. order) :-0.2129880E+03  (-0.1753878E+03)
 number of electron     258.0000000 magnetization      42.0000000
 augmentation part      258.0000000 magnetization      42.0000000

 Free energy of the ion-electron system (eV)
  ---------------------------------------------------
  alpha Z        PSCENC =       763.62293710
  Ewald energy   TEWEN  =    -14117.78693850
  -Hartree energ DENC   =     -6972.72693278
  -exchange      EXHF   =         0.00000000
  -V(xc)+E(xc)   XCENC  =       850.79923756
  PAW double counting   =     17009.71267429   -17545.36899777
  entropy T*S    EENTRO =        -0.03121264
  eigenvalues    EBANDS =      -303.85665386
  atomic energy  EATOM  =     20168.87094289
  Solvation  Ediel_sol  =         0.00000000
  ---------------------------------------------------
  free energy    TOTEN  =      -146.76494372 eV

  energy without entropy =     -146.73373108  energy(sigma->0) =     -146.74933740


--------------------------------------------------------------------------------------------------------




----------------------------------------- Iteration    1(   5)  ---------------------------------------


    EDDIAG:  cpu time    3.1844: real time    3.2179
  RMM-DIIS:  cpu time    4.0913: real time    4.1163
    ORTHCH:  cpu time    0.8004: real time    0.8056
       DOS:  cpu time    0.0106: real time    0.0107
    --------------------------------------------
      LOOP:  cpu time    8.0883: real time    8.1636

 eigenvalue-minimisations  : 14400
 total energy-change (2. order) :-0.1034099E+03  (-0.6728210E+02)
 number of electron     258.0000000 magnetization      42.0000000
 augmentation part      258.0000000 magnetization      42.0000000

 Free energy of the ion-electron system (eV)
  ---------------------------------------------------
  alpha Z        PSCENC =       763.62293710
  Ewald energy   TEWEN  =    -14117.78693850
  -Hartree energ DENC   =     -6972.72693278
  -exchange      EXHF   =         0.00000000
  -V(xc)+E(xc)   XCENC  =       850.79923756
  PAW double counting   =     17009.71267429   -17545.36899777
  entropy T*S    EENTRO =        -0.05233847
  eigenvalues    EBANDS =      -407.24545619
  atomic energy  EATOM  =     20168.87094289
  Solvation  Ediel_sol  =         0.00000000
  ---------------------------------------------------
  free energy    TOTEN  =      -250.17487188 eV

  energy without entropy =     -250.12253341  energy(sigma->0) =     -250.14870264


--------------------------------------------------------------------------------------------------------




----------------------------------------- Iteration    1(   6)  ---------------------------------------


    EDDIAG:  cpu time    3.1075: real time    3.1265
  RMM-DIIS:  cpu time    3.5382: real time    3.5604
    ORTHCH:  cpu time    0.7524: real time    0.7572
       DOS:  cpu time    0.0095: real time    0.0095
    --------------------------------------------
      LOOP:  cpu time    7.4091: real time    7.4673

 eigenvalue-minimisations  : 14400
 total energy-change (2. order) :-0.2669743E+02  (-0.1772129E+02)
 number of electron     258.0000000 magnetization      42.0000000
 augmentation part      258.0000000 magnetization      42.0000000

 Free energy of the ion-electron system (eV)
  ---------------------------------------------------
  alpha Z        PSCENC =       763.62293710
  Ewald energy   TEWEN  =    -14117.78693850
  -Hartree energ DENC   =     -6972.72693278
  -exchange      EXHF   =         0.00000000
  -V(xc)+E(xc)   XCENC  =       850.79923756
  PAW double counting   =     17009.71267429   -17545.36899777
  entropy T*S    EENTRO =        -0.03899177
  eigenvalues    EBANDS =      -433.95623612
  atomic energy  EATOM  =     20168.87094289
  Solvation  Ediel_sol  =         0.00000000
  ---------------------------------------------------
  free energy    TOTEN  =      -276.87230510 eV

  energy without entropy =     -276.83331333  energy(sigma->0) =     -276.85280922


--------------------------------------------------------------------------------------------------------




----------------------------------------- Iteration    1(   7)  ---------------------------------------


    EDDIAG:  cpu time    3.0070: real time    3.0246
  RMM-DIIS:  cpu time    3.5268: real time    3.5498
    ORTHCH:  cpu time    0.7616: real time    0.7667
       DOS:  cpu time    0.0105: real time    0.0106
    --------------------------------------------
      LOOP:  cpu time    7.3074: real time    7.3629

 eigenvalue-minimisations  : 14400
 total energy-change (2. order) :-0.9638238E+01  (-0.7264521E+01)
 number of electron     258.0000000 magnetization      42.0000000
 augmentation part      258.0000000 magnetization      42.0000000

 Free energy of the ion-electron system (eV)
  ---------------------------------------------------
  alpha Z        PSCENC =       763.62293710
  Ewald energy   TEWEN  =    -14117.78693850
  -Hartree energ DENC   =     -6972.72693278
  -exchange      EXHF   =         0.00000000
  -V(xc)+E(xc)   XCENC  =       850.79923756
  PAW double counting   =     17009.71267429   -17545.36899777
  entropy T*S    EENTRO =        -0.03891415
  eigenvalues    EBANDS =      -443.59455214
  atomic energy  EATOM  =     20168.87094289
  Solvation  Ediel_sol  =         0.00000000
  ---------------------------------------------------
  free energy    TOTEN  =      -286.51054350 eV

  energy without entropy =     -286.47162936  energy(sigma->0) =     -286.49108643


--------------------------------------------------------------------------------------------------------




----------------------------------------- Iteration    1(   8)  ---------------------------------------


    EDDIAG:  cpu time    3.0999: real time    3.1190
  RMM-DIIS:  cpu time    3.5915: real time    3.6194
    ORTHCH:  cpu time    0.7596: real time    0.7643
       DOS:  cpu time    0.0102: real time    0.0102
    --------------------------------------------
      LOOP:  cpu time    7.4628: real time    7.5246

 eigenvalue-minimisations  : 14400
 total energy-change (2. order) :-0.2168344E+01  (-0.1503249E+01)
 number of electron     258.0000000 magnetization      42.0000000
 augmentation part      258.0000000 magnetization      42.0000000

 Free energy of the ion-electron system (eV)
  ---------------------------------------------------
  alpha Z        PSCENC =       763.62293710
  Ewald energy   TEWEN  =    -14117.78693850
  -Hartree energ DENC   =     -6972.72693278
  -exchange      EXHF   =         0.00000000
  -V(xc)+E(xc)   XCENC  =       850.79923756
  PAW double counting   =     17009.71267429   -17545.36899777
  entropy T*S    EENTRO =        -0.03904491
  eigenvalues    EBANDS =      -445.76276567
  atomic energy  EATOM  =     20168.87094289
  Solvation  Ediel_sol  =         0.00000000
  ---------------------------------------------------
  free energy    TOTEN  =      -288.67888780 eV

  energy without entropy =     -288.63984289  energy(sigma->0) =     -288.65936535


--------------------------------------------------------------------------------------------------------




----------------------------------------- Iteration    1(   9)  ---------------------------------------


    EDDIAG:  cpu time    3.0155: real time    3.0336
  RMM-DIIS:  cpu time    8.8674: real time    8.9320
    ORTHCH:  cpu time    0.7846: real time    0.7894
       DOS:  cpu time    0.0103: real time    0.0103
    --------------------------------------------
      LOOP:  cpu time   12.6792: real time   12.7781

 eigenvalue-minimisations  : 38194
 total energy-change (2. order) :-0.1074982E+01  (-0.9148899E+00)
 number of electron     258.0000000 magnetization      42.0000000
 augmentation part      258.0000000 magnetization      42.0000000

 Free energy of the ion-electron system (eV)
  ---------------------------------------------------
  alpha Z        PSCENC =       763.62293710
  Ewald energy   TEWEN  =    -14117.78693850
  -Hartree energ DENC   =     -6972.72693278
  -exchange      EXHF   =         0.00000000
  -V(xc)+E(xc)   XCENC  =       850.79923756
  PAW double counting   =     17009.71267429   -17545.36899777
  entropy T*S    EENTRO =        -0.03901143
  eigenvalues    EBANDS =      -446.83778116
  atomic energy  EATOM  =     20168.87094289
  Solvation  Ediel_sol  =         0.00000000
  ---------------------------------------------------
  free energy    TOTEN  =      -289.75386981 eV

  energy without entropy =     -289.71485838  energy(sigma->0) =     -289.73436409


--------------------------------------------------------------------------------------------------------




----------------------------------------- Iteration    1(  10)  ---------------------------------------


    EDDIAG:  cpu time    3.1399: real time    3.1600
  RMM-DIIS:  cpu time    9.0245: real time    9.0856
    ORTHCH:  cpu time    0.7675: real time    0.7726
       DOS:  cpu time    0.0103: real time    0.0104
    --------------------------------------------
      LOOP:  cpu time   12.9439: real time   13.0398

 eigenvalue-minimisations  : 39008
 total energy-change (2. order) : 0.1325024E-01  (-0.3224710E-01)
 number of electron     258.0000000 magnetization      42.0000000
 augmentation part      258.0000000 magnetization      42.0000000

 Free energy of the ion-electron system (eV)
  ---------------------------------------------------
  alpha Z        PSCENC =       763.62293710
  Ewald energy   TEWEN  =    -14117.78693850
  -Hartree energ DENC   =     -6972.72693278
  -exchange      EXHF   =         0.00000000
  -V(xc)+E(xc)   XCENC  =       850.79923756
  PAW double counting   =     17009.71267429   -17545.36899777
  entropy T*S    EENTRO =        -0.03910988
  eigenvalues    EBANDS =      -446.82443247
  atomic energy  EATOM  =     20168.87094289
  Solvation  Ediel_sol  =         0.00000000
  ---------------------------------------------------
  free energy    TOTEN  =      -289.74061957 eV

  energy without entropy =     -289.70150969  energy(sigma->0) =     -289.72106463


--------------------------------------------------------------------------------------------------------




----------------------------------------- Iteration    1(  11)  ---------------------------------------


    EDDIAG:  cpu time    3.1040: real time    3.1221
  RMM-DIIS:  cpu time    9.4355: real time    9.4962
    ORTHCH:  cpu time    0.7549: real time    0.7593
       DOS:  cpu time    0.0211: real time    0.0213
    --------------------------------------------
      LOOP:  cpu time   13.3171: real time   13.4106

 eigenvalue-minimisations  : 40650
 total energy-change (2. order) :-0.2111025E-02  (-0.3382025E-02)
 number of electron     258.0000000 magnetization      42.0000000
 augmentation part      258.0000000 magnetization      42.0000000

 Free energy of the ion-electron system (eV)
  ---------------------------------------------------
  alpha Z        PSCENC =       763.62293710
  Ewald energy   TEWEN  =    -14117.78693850
  -Hartree energ DENC   =     -6972.72693278
  -exchange      EXHF   =         0.00000000
  -V(xc)+E(xc)   XCENC  =       850.79923756
  PAW double counting   =     17009.71267429   -17545.36899777
  entropy T*S    EENTRO =        -0.03911994
  eigenvalues    EBANDS =      -446.82653343
  atomic energy  EATOM  =     20168.87094289
  Solvation  Ediel_sol  =         0.00000000
  ---------------------------------------------------
  free energy    TOTEN  =      -289.74273059 eV

  energy without entropy =     -289.70361065  energy(sigma->0) =     -289.72317062


--------------------------------------------------------------------------------------------------------




----------------------------------------- Iteration    1(  12)  ---------------------------------------


    EDDIAG:  cpu time    3.0733: real time    3.0925
  RMM-DIIS:  cpu time    9.1936: real time    9.2573
    ORTHCH:  cpu time    0.7649: real time    0.7701
       DOS:  cpu time    0.0098: real time    0.0099
    CHARGE:  cpu time    0.3790: real time    0.3808
    MIXING:  cpu time    0.0007: real time    0.0007
    --------------------------------------------
      LOOP:  cpu time   13.4230: real time   13.5230

 eigenvalue-minimisations  : 39781
 total energy-change (2. order) :-0.1248561E-03  (-0.1384770E-03)
 number of electron     258.0000072 magnetization      34.3099422
 augmentation part       67.6897244 magnetization      30.7841702

 Broyden mixing:
  rms(total) = 0.96809E+01    rms(broyden)= 0.96807E+01
  rms(prec ) = 0.10493E+02
  weight for this iteration     100.00

 Free energy of the ion-electron system (eV)
  ---------------------------------------------------
  alpha Z        PSCENC =       763.62293710
  Ewald energy   TEWEN  =    -14117.78693850
  -Hartree energ DENC   =     -6972.72693278
  -exchange      EXHF   =         0.00000000
  -V(xc)+E(xc)   XCENC  =       850.79923756
  PAW double counting   =     17009.71267429   -17545.36899777
  entropy T*S    EENTRO =        -0.03912014
  eigenvalues    EBANDS =      -446.82665809
  atomic energy  EATOM  =     20168.87094289
  Solvation  Ediel_sol  =         0.00000000
  ---------------------------------------------------
  free energy    TOTEN  =      -289.74285545 eV

  energy without entropy =     -289.70373531  energy(sigma->0) =     -289.72329538


--------------------------------------------------------------------------------------------------------




----------------------------------------- Iteration    1(  13)  ---------------------------------------


    POTLOK:  cpu time    0.0305: real time    0.0307
    SETDIJ:  cpu time    0.0064: real time    0.0065
    EDDIAG:  cpu time    3.1311: real time    3.1625
  RMM-DIIS:  cpu time    8.2918: real time    8.3687
    ORTHCH:  cpu time    0.7917: real time    0.7972
       DOS:  cpu time    0.0097: real time    0.0097
    CHARGE:  cpu time    0.3621: real time    0.3642
    MIXING:  cpu time    0.0008: real time    0.0008
    --------------------------------------------
      LOOP:  cpu time   12.6259: real time   12.7525

 eigenvalue-minimisations  : 32019
 total energy-change (2. order) :-0.4812966E+02  (-0.8974591E+02)
 number of electron     257.9999991 magnetization      32.1379885
 augmentation part       94.7450539 magnetization      27.9722634

 Broyden mixing:
  rms(total) = 0.15826E+02    rms(broyden)= 0.15826E+02
  rms(prec ) = 0.16866E+02
  weight for this iteration     100.00

 eigenvalues of (default mixing * dielectric matrix)
  average eigenvalue GAMMA=   0.2850
  0.2850

 Free energy of the ion-electron system (eV)
  ---------------------------------------------------
  alpha Z        PSCENC =       763.62293710
  Ewald energy   TEWEN  =    -14117.78693850
  -Hartree energ DENC   =     -6831.15964601
  -exchange      EXHF   =         0.00000000
  -V(xc)+E(xc)   XCENC  =       872.99044180
  PAW double counting   =     19421.72793952   -19838.34271165
  entropy T*S    EENTRO =        -0.01357883
  eigenvalues    EBANDS =      -777.78190310
  atomic energy  EATOM  =     20168.87094289
  Solvation  Ediel_sol  =         0.00000000
  ---------------------------------------------------
  free energy    TOTEN  =      -337.87251677 eV

  energy without entropy =     -337.85893795  energy(sigma->0) =     -337.86572736


--------------------------------------------------------------------------------------------------------




----------------------------------------- Iteration    1(  14)  ---------------------------------------


    POTLOK:  cpu time    0.0289: real time    0.0291
    SETDIJ:  cpu time    0.0061: real time    0.0061
    EDDIAG:  cpu time    3.0059: real time    3.0267
  RMM-DIIS:  cpu time    6.5889: real time    6.6343
    ORTHCH:  cpu time    0.7485: real time    0.7531
       DOS:  cpu time    0.0094: real time    0.0094
    CHARGE:  cpu time    0.3517: real time    0.3534
    MIXING:  cpu time    0.0008: real time    0.0008
    --------------------------------------------
      LOOP:  cpu time   10.7419: real time   10.8237

 eigenvalue-minimisations  : 28800
 total energy-change (2. order) : 0.1258141E+03  (-0.1239066E+02)
 number of electron     258.0000043 magnetization      25.8068100
 augmentation part       78.0723942 magnetization      23.3406964

 Broyden mixing:
  rms(total) = 0.38565E+01    rms(broyden)= 0.38563E+01
  rms(prec ) = 0.41382E+01
  weight for this iteration     100.00

 eigenvalues of (default mixing * dielectric matrix)
  average eigenvalue GAMMA=   0.5887
  0.8249  0.3524

 Free energy of the ion-electron system (eV)
  ---------------------------------------------------
  alpha Z        PSCENC =       763.62293710
  Ewald energy   TEWEN  =    -14117.78693850
  -Hartree energ DENC   =     -6945.19584790
  -exchange      EXHF   =         0.00000000
  -V(xc)+E(xc)   XCENC  =       869.65627286
  PAW double counting   =     20364.33170251   -20866.66208496
  entropy T*S    EENTRO =        -0.00864485
  eigenvalues    EBANDS =      -448.88678455
  atomic energy  EATOM  =     20168.87094289
  Solvation  Ediel_sol  =         0.00000000
  ---------------------------------------------------
  free energy    TOTEN  =      -212.05844540 eV

  energy without entropy =     -212.04980055  energy(sigma->0) =     -212.05412298


--------------------------------------------------------------------------------------------------------




----------------------------------------- Iteration    1(  15)  ---------------------------------------


    POTLOK:  cpu time    0.0307: real time    0.0309
    SETDIJ:  cpu time    0.0065: real time    0.0065
    EDDIAG:  cpu time    3.0399: real time    3.0566
  RMM-DIIS:  cpu time    6.6396: real time    6.6822
    ORTHCH:  cpu time    0.7570: real time    0.7615
       DOS:  cpu time    0.0097: real time    0.0097
    CHARGE:  cpu time    0.3602: real time    0.3619
    MIXING:  cpu time    0.0008: real time    0.0008
    --------------------------------------------
      LOOP:  cpu time   10.8462: real time   10.9201

 eigenvalue-minimisations  : 28880
 total energy-change (2. order) :-0.4672412E+02  (-0.3579133E+01)
 number of electron     258.0000023 magnetization      24.0140182
 augmentation part       75.7015072 magnetization      21.2210806

 Broyden mixing:
  rms(total) = 0.10374E+02    rms(broyden)= 0.10374E+02
  rms(prec ) = 0.12430E+02
  weight for this iteration     100.00

 eigenvalues of (default mixing * dielectric matrix)
  average eigenvalue GAMMA=   0.4950
  0.9682  0.3451  0.1716

 Free energy of the ion-electron system (eV)
  ---------------------------------------------------
  alpha Z        PSCENC =       763.62293710
  Ewald energy   TEWEN  =    -14117.78693850
  -Hartree energ DENC   =     -6946.83095574
  -exchange      EXHF   =         0.00000000
  -V(xc)+E(xc)   XCENC  =       868.32466317
  PAW double counting   =     21604.44330685   -22121.44339328
  entropy T*S    EENTRO =        -0.00377722
  eigenvalues    EBANDS =      -477.97935178
  atomic energy  EATOM  =     20168.87094289
  Solvation  Ediel_sol  =         0.00000000
  ---------------------------------------------------
  free energy    TOTEN  =      -258.78256650 eV

  energy without entropy =     -258.77878929  energy(sigma->0) =     -258.78067790


--------------------------------------------------------------------------------------------------------




----------------------------------------- Iteration    1(  16)  ---------------------------------------


    POTLOK:  cpu time    0.0289: real time    0.0290
    SETDIJ:  cpu time    0.0062: real time    0.0062
    EDDIAG:  cpu time    3.0287: real time    3.0464
  RMM-DIIS:  cpu time    6.5606: real time    6.6056
    ORTHCH:  cpu time    0.7519: real time    0.7567
       DOS:  cpu time    0.0083: real time    0.0084
    CHARGE:  cpu time    0.3584: real time    0.3601
    MIXING:  cpu time    0.0008: real time    0.0008
    --------------------------------------------
      LOOP:  cpu time   10.7453: real time   10.8250

 eigenvalue-minimisations  : 28808
 total energy-change (2. order) : 0.4358385E+02  (-0.2028051E+01)
 number of electron     258.0000049 magnetization      22.2756515
 augmentation part       76.6077105 magnetization      19.9444466

 Broyden mixing:
  rms(total) = 0.36092E+01    rms(broyden)= 0.36091E+01
  rms(prec ) = 0.44333E+01
  weight for this iteration     100.00

 eigenvalues of (default mixing * dielectric matrix)
  average eigenvalue GAMMA=   0.4715
  1.0231  0.4313  0.2813  0.1504

 Free energy of the ion-electron system (eV)
  ---------------------------------------------------
  alpha Z        PSCENC =       763.62293710
  Ewald energy   TEWEN  =    -14117.78693850
  -Hartree energ DENC   =     -6949.92306240
  -exchange      EXHF   =         0.00000000
  -V(xc)+E(xc)   XCENC  =       867.32470265
  PAW double counting   =     21998.20623885   -22522.24534492
  entropy T*S    EENTRO =        -0.01193542
  eigenvalues    EBANDS =      -423.25625809
  atomic energy  EATOM  =     20168.87094289
  Solvation  Ediel_sol  =         0.00000000
  ---------------------------------------------------
  free energy    TOTEN  =      -215.19871784 eV

  energy without entropy =     -215.18678242  energy(sigma->0) =     -215.19275013


--------------------------------------------------------------------------------------------------------




----------------------------------------- Iteration    1(  17)  ---------------------------------------


    POTLOK:  cpu time    0.0289: real time    0.0290
    SETDIJ:  cpu time    0.0060: real time    0.0060
    EDDIAG:  cpu time    3.0413: real time    3.0593
  RMM-DIIS:  cpu time    7.5968: real time    7.6489
    ORTHCH:  cpu time    0.7893: real time    0.7941
       DOS:  cpu time    0.0104: real time    0.0104
    CHARGE:  cpu time    0.3705: real time    0.3724
    MIXING:  cpu time    0.0009: real time    0.0009
    --------------------------------------------
      LOOP:  cpu time   11.8457: real time   11.9313

 eigenvalue-minimisations  : 28844
 total energy-change (2. order) :-0.1661008E+01  (-0.1251342E+01)
 number of electron     258.0000048 magnetization      18.2430990
 augmentation part       76.4558414 magnetization      15.3344039

 Broyden mixing:
  rms(total) = 0.27792E+01    rms(broyden)= 0.27791E+01
  rms(prec ) = 0.32403E+01
  weight for this iteration     100.00

 eigenvalues of (default mixing * dielectric matrix)
  average eigenvalue GAMMA=   0.4959
  1.1876  0.6606  0.2974  0.1928  0.1412

 Free energy of the ion-electron system (eV)
  ---------------------------------------------------
  alpha Z        PSCENC =       763.62293710
  Ewald energy   TEWEN  =    -14117.78693850
  -Hartree energ DENC   =     -6954.89901994
  -exchange      EXHF   =         0.00000000
  -V(xc)+E(xc)   XCENC  =       866.05684673
  PAW double counting   =     22289.60029367   -22817.43641546
  entropy T*S    EENTRO =        -0.01228059
  eigenvalues    EBANDS =      -414.87609140
  atomic energy  EATOM  =     20168.87094289
  Solvation  Ediel_sol  =         0.00000000
  ---------------------------------------------------
  free energy    TOTEN  =      -216.85972552 eV

  energy without entropy =     -216.84744493  energy(sigma->0) =     -216.85358522


--------------------------------------------------------------------------------------------------------




----------------------------------------- Iteration    1(  18)  ---------------------------------------


    POTLOK:  cpu time    0.0295: real time    0.0296
    SETDIJ:  cpu time    0.0064: real time    0.0064
    EDDIAG:  cpu time    3.0507: real time    3.0973
  RMM-DIIS:  cpu time    6.6592: real time    6.7035
    ORTHCH:  cpu time    0.7323: real time    0.7368
       DOS:  cpu time    0.0092: real time    0.0093
    CHARGE:  cpu time    0.3430: real time    0.3446
    MIXING:  cpu time    0.0010: real time    0.0010
    --------------------------------------------
      LOOP:  cpu time   10.8328: real time   10.9412

 eigenvalue-minimisations  : 28817
 total energy-change (2. order) :-0.6291342E+01  (-0.7785385E+00)
 number of electron     258.0000043 magnetization      16.8965122
 augmentation part       76.4211287 magnetization      14.5786726

 Broyden mixing:
  rms(total) = 0.20929E+01    rms(broyden)= 0.20929E+01
  rms(prec ) = 0.24415E+01
  weight for this iteration     100.00

 eigenvalues of (default mixing * dielectric matrix)
  average eigenvalue GAMMA=   0.4797
  1.2273  0.6460  0.3473  0.3473  0.1551  0.1551

 Free energy of the ion-electron system (eV)
  ---------------------------------------------------
  alpha Z        PSCENC =       763.62293710
  Ewald energy   TEWEN  =    -14117.78693850
  -Hartree energ DENC   =     -6963.07383134
  -exchange      EXHF   =         0.00000000
  -V(xc)+E(xc)   XCENC  =       862.18094749
  PAW double counting   =     22951.70425350   -23483.70239935
  entropy T*S    EENTRO =        -0.00903475
  eigenvalues    EBANDS =      -404.95794460
  atomic energy  EATOM  =     20168.87094289
  Solvation  Ediel_sol  =         0.00000000
  ---------------------------------------------------
  free energy    TOTEN  =      -223.15106757 eV

  energy without entropy =     -223.14203282  energy(sigma->0) =     -223.14655019


--------------------------------------------------------------------------------------------------------




----------------------------------------- Iteration    1(  19)  ---------------------------------------


    POTLOK:  cpu time    0.0291: real time    0.0293
    SETDIJ:  cpu time    0.0059: real time    0.0060
    EDDIAG:  cpu time    2.9278: real time    2.9448
  RMM-DIIS:  cpu time    6.6244: real time    6.6749
    ORTHCH:  cpu time    0.7683: real time    0.7762
       DOS:  cpu time    0.0108: real time    0.0108
    CHARGE:  cpu time    0.4261: real time    0.4282
    MIXING:  cpu time    0.0011: real time    0.0011
    --------------------------------------------
      LOOP:  cpu time   10.7950: real time   10.8817

 eigenvalue-minimisations  : 28829
 total energy-change (2. order) :-0.2843482E+01  (-0.3428344E+00)
 number of electron     258.0000041 magnetization      14.9648793
 augmentation part       76.0813579 magnetization      12.4353463

 Broyden mixing:
  rms(total) = 0.17722E+01    rms(broyden)= 0.17721E+01
  rms(prec ) = 0.22869E+01
  weight for this iteration     100.00

 eigenvalues of (default mixing * dielectric matrix)
  average eigenvalue GAMMA=   0.4797
  1.2175  0.6546  0.6546  0.3452  0.1808  0.1526  0.1526

 Free energy of the ion-electron system (eV)
  ---------------------------------------------------
  alpha Z        PSCENC =       763.62293710
  Ewald energy   TEWEN  =    -14117.78693850
  -Hartree energ DENC   =     -6965.86627435
  -exchange      EXHF   =         0.00000000
  -V(xc)+E(xc)   XCENC  =       860.67753731
  PAW double counting   =     23117.33977909   -23651.32511514
  entropy T*S    EENTRO =        -0.00997990
  eigenvalues    EBANDS =      -401.51743809
  atomic energy  EATOM  =     20168.87094289
  Solvation  Ediel_sol  =         0.00000000
  ---------------------------------------------------
  free energy    TOTEN  =      -225.99454959 eV

  energy without entropy =     -225.98456969  energy(sigma->0) =     -225.98955964


--------------------------------------------------------------------------------------------------------




----------------------------------------- Iteration    1(  20)  ---------------------------------------


    POTLOK:  cpu time    0.0327: real time    0.0329
    SETDIJ:  cpu time    0.0073: real time    0.0073
    EDDIAG:  cpu time    3.1485: real time    3.1663
  RMM-DIIS:  cpu time    6.6061: real time    6.6492
    ORTHCH:  cpu time    0.7625: real time    0.7670
       DOS:  cpu time    0.0096: real time    0.0097
    CHARGE:  cpu time    0.3649: real time    0.3664
    MIXING:  cpu time    0.0010: real time    0.0010
    --------------------------------------------
      LOOP:  cpu time   10.9341: real time   11.0099

 eigenvalue-minimisations  : 28858
 total energy-change (2. order) :-0.3651912E+01  (-0.3413078E+00)
[...]
  0.659   0.009   0.076  -4.340   0.014   0.671   0.009   0.076
  0.014   0.635   0.174   0.014  -4.521   0.014   0.647   0.176
 -5.081  -0.005   0.058   0.671   0.014  -5.563  -0.005   0.059
 -0.005  -4.972   0.031   0.009   0.647  -0.005  -5.443   0.031
  0.058   0.031  -4.608   0.076   0.176   0.059   0.031  -5.089
  0.671   0.009   0.076  -4.862   0.014   0.690   0.008   0.076
  0.014   0.647   0.176   0.014  -5.050   0.014   0.666   0.179
 -0.001  -0.003  -0.004  -0.004  -0.002  -0.001  -0.003  -0.005
 -0.001  -0.006  -0.008  -0.006  -0.002  -0.001  -0.006  -0.009
 -0.001  -0.002  -0.000  -0.000  -0.002  -0.001  -0.002  -0.000
 -0.000   0.001   0.000  -0.002   0.000  -0.000   0.001  -0.000
 -0.000  -0.000   0.000  -0.001  -0.001  -0.000  -0.000   0.000
 -0.002  -0.002  -0.000  -0.000  -0.002  -0.001  -0.002  -0.000
 -0.000   0.001  -0.000  -0.003   0.000  -0.000   0.001  -0.001
 -0.000  -0.000   0.001  -0.002  -0.002  -0.000  -0.000   0.001
 total augmentation occupancy for first ion, spin component:           1
  6.857   0.032  -0.026  -2.314  -0.091  -5.425  -0.008  -0.009   0.443   0.095   0.071  -0.006  -0.006   0.085  -0.062   0.000
  0.032   5.453   0.109  -0.078  -2.200   0.001  -4.794  -0.052   0.063   0.268   0.122  -0.017   0.074   0.046   0.041  -0.019
 -0.026   0.109   6.619   0.049  -0.185  -0.008  -0.073  -4.278  -0.055   0.098   0.609  -0.148   0.051   0.119  -0.053  -0.005
 -2.314  -0.078   0.049   5.205   0.011   0.439   0.063  -0.047  -4.580   0.009   0.082  -0.003   0.045  -0.077   0.021  -0.012
 -0.091  -2.200  -0.185   0.011   6.808   0.096   0.321   0.102   0.001  -5.424   0.054  -0.013  -0.070  -0.051   0.001   0.007
 -5.425   0.001  -0.008   0.439   0.096   5.600  -0.018   0.024   0.865  -0.100  -0.057   0.004  -0.004  -0.084   0.053   0.003
 -0.008  -4.794  -0.073   0.063   0.321  -0.018   5.516   0.028  -0.052   1.046  -0.126   0.022  -0.095  -0.038  -0.049   0.020
 -0.009  -0.052  -4.278  -0.047   0.102   0.024   0.028   3.665   0.044  -0.066  -0.644   0.164  -0.047  -0.116   0.061   0.006
  0.443   0.063  -0.055  -4.580   0.001   0.865  -0.052   0.044   5.311  -0.018  -0.073   0.006  -0.052   0.067  -0.032   0.012
  0.095   0.268   0.098   0.009  -5.424  -0.100   1.046  -0.066  -0.018   5.632  -0.051   0.008   0.047   0.051  -0.010  -0.005
  0.071   0.122   0.609   0.082   0.054  -0.057  -0.126  -0.644  -0.073  -0.051   2.903  -0.577   0.007  -0.061  -0.010  -0.001
 -0.006  -0.017  -0.148  -0.003  -0.013   0.004   0.022   0.164   0.006   0.008  -0.577   0.153  -0.000   0.013   0.001   0.000
 -0.006   0.074   0.051   0.045  -0.070  -0.004  -0.095  -0.047  -0.052   0.047   0.007  -0.000   0.553  -0.011  -0.002  -0.091
  0.085   0.046   0.119  -0.077  -0.051  -0.084  -0.038  -0.116   0.067   0.051  -0.061   0.013  -0.011   0.457  -0.004   0.002
 -0.062   0.041  -0.053   0.021   0.001   0.053  -0.049   0.061  -0.032  -0.010  -0.010   0.001  -0.002  -0.004   0.544   0.001
  0.000  -0.019  -0.005  -0.012   0.007   0.003   0.020   0.006   0.012  -0.005  -0.001   0.000  -0.091   0.002   0.001   0.019
 -0.016  -0.007  -0.016   0.012   0.009   0.016   0.005   0.018  -0.010  -0.009   0.012  -0.004   0.002  -0.071   0.001  -0.000
  0.006  -0.011   0.008  -0.005  -0.001  -0.008   0.012  -0.011   0.006   0.003   0.002  -0.000   0.001   0.001  -0.089  -0.000
 total augmentation occupancy for first ion, spin component:           2
  0.229  -0.008   0.100  -0.107   0.015  -0.112   0.003  -0.033   0.111  -0.001   0.003  -0.005   0.002   0.002  -0.006   0.000
 -0.008  -0.142   0.120  -0.048  -0.139   0.009   0.159  -0.045   0.034   0.162  -0.010   0.005  -0.006   0.002  -0.001   0.000
  0.100   0.120   2.375   0.214   0.481  -0.071  -0.102  -1.506  -0.156  -0.333   0.063   0.019   0.000   0.008  -0.030   0.000
 -0.107  -0.048   0.214  -0.119   0.033   0.137   0.031  -0.124   0.143  -0.017   0.006   0.005  -0.003  -0.000  -0.004  -0.000
  0.015  -0.139   0.481   0.033   0.276  -0.006   0.128  -0.273  -0.023  -0.141   0.024  -0.007  -0.003   0.003  -0.003   0.000
 -0.112   0.009  -0.071   0.137  -0.006   0.032  -0.004   0.030  -0.119  -0.001  -0.002   0.001  -0.001  -0.001   0.004  -0.000
  0.003   0.159  -0.102   0.031   0.128  -0.004  -0.170   0.048  -0.022  -0.134   0.007  -0.003   0.005  -0.002   0.001  -0.000
 -0.033  -0.045  -1.506  -0.124  -0.273   0.030   0.048   0.985   0.097   0.200  -0.046  -0.007  -0.001  -0.006   0.019  -0.000
  0.111   0.034  -0.156   0.143  -0.023  -0.119  -0.022   0.097  -0.156   0.013  -0.007  -0.003   0.002   0.000   0.002  -0.000
 -0.001   0.162  -0.333  -0.017  -0.141  -0.001  -0.134   0.200   0.013   0.051  -0.015   0.003   0.003  -0.003   0.002  -0.000
  0.003  -0.010   0.063   0.006   0.024  -0.002   0.007  -0.046  -0.007  -0.015  -0.039   0.020  -0.000   0.001  -0.000   0.000
 -0.005   0.005   0.019   0.005  -0.007   0.001  -0.003  -0.007  -0.003   0.003   0.020  -0.004   0.000  -0.000  -0.000  -0.000
  0.002  -0.006   0.000  -0.003  -0.003  -0.001   0.005  -0.001   0.002   0.003  -0.000   0.000   0.001   0.000  -0.001   0.001
  0.002   0.002   0.008  -0.000   0.003  -0.001  -0.002  -0.006   0.000  -0.003   0.001  -0.000   0.000  -0.001   0.000  -0.000
 -0.006  -0.001  -0.030  -0.004  -0.003   0.004   0.001   0.019   0.002   0.002  -0.000  -0.000  -0.001   0.000   0.002  -0.000
  0.000   0.000   0.000  -0.000   0.000  -0.000  -0.000  -0.000  -0.000  -0.000   0.000  -0.000   0.001  -0.000  -0.000  -0.000
  0.000   0.000  -0.001  -0.000  -0.000  -0.000  -0.000   0.000   0.000   0.000  -0.000   0.000  -0.000   0.001   0.000   0.000
 -0.000   0.000   0.001   0.000   0.000   0.000  -0.000  -0.001  -0.000  -0.000   0.000  -0.000  -0.000  -0.000   0.001   0.000


------------------------ aborting loop because EDIFF is reached ----------------------------------------


    CHARGE:  cpu time    0.3400: real time    0.3419
    FORLOC:  cpu time    0.0028: real time    0.0028
    FORNL :  cpu time    2.0149: real time    2.0271
    STRESS:  cpu time    6.3358: real time    6.3730
    FORCOR:  cpu time    0.0303: real time    0.0305
    FORHAR:  cpu time    0.0055: real time    0.0056
    MIXING:  cpu time    0.0048: real time    0.0048
    OFIELD:  cpu time    0.0000: real time    0.0000

 ---------------------------------------------------------------------------------------------

         DFTD3 V3.0 Rev 1        
 IVDW         = 12
 DF pbe       
 parameters
 VDW_S6       =    1.0000
 VDW_S8       =    0.7875
 VDW_A1       =    0.4289
 VDW_A2       =    4.4407
 k1-k3        =   16.0000    1.3333   -4.0000
 VDW_RADIUS   =   50.2022 A
 VDW_CNRADIUS =   21.1671 A
 Edisp (eV)   -7.80650

 E6    (eV) :    -4.9847
 E8    (eV) :    -2.8218
 % E8        : 36.15
    FORVDW:  cpu time    0.3934: real time    0.3965

  FORCE on cell =-STRESS in cart. coord.  units (eV):
  Direction    XX          YY          ZZ          XY          YZ          ZX
  --------------------------------------------------------------------------------------
  Alpha Z   763.62294   763.62294   763.62294
  Ewald   -1698.18514 -1700.81567-10718.85661     2.23569   -34.36338     7.74589
  Hartree  4530.85271  4532.30070 -2139.35852    -1.35937   -27.56399    14.41624
  E(xc)   -1284.97439 -1284.96149 -1286.83180     0.07847     0.03567     0.00772
  Local   -7798.31904 -7797.47486  7842.58263     2.86499    63.83603   -23.04011
  n-local  -589.97211  -590.26456  -601.52963    -0.52453     0.24878    -0.82565
  augment  2018.23861  2018.38555  2005.14563    -1.34426    -1.29589     0.55869
  Kinetic  4065.23440  4066.16070  4143.59361    -2.64101    -1.15057     0.86913
  Fock        0.00000     0.00000     0.00000     0.00000     0.00000     0.00000
  vdW        -8.14025    -8.14141    -8.17243     0.02625     0.00066    -0.00351
  -------------------------------------------------------------------------------------
  Total      -1.64228    -1.18812     0.19581    -0.66378    -0.25269    -0.27161
  in kB      -6.85365    -4.95831     0.81715    -2.77012    -1.05453    -1.13349
  external pressure =       -3.66 kB  Pullay stress =        0.00 kB


 VOLUME and BASIS-vectors are now :
 -----------------------------------------------------------------------------
  energy-cutoff  :      600.00
  volume of cell :      383.92
      direct lattice vectors                 reciprocal lattice vectors
     5.596115616  0.015854049  0.019859727     0.178406804  0.102593349 -0.000585256
    -2.784030638  4.841176567 -0.029891120    -0.000586843  0.206228383  0.000729438
     0.075067718 -0.049829621 14.148346210    -0.000251666  0.000291689  0.070682001

  length of vectors
     5.596173313  5.584685365 14.148633101     0.205802637  0.206230508  0.070683051


 FORCES acting on ions
    electron-ion (+dipol)            ewald-force                    non-local-force                 convergence-correction
 -----------------------------------------------------------------------------------------------
   0.832E+01 -.473E+01 -.412E+02   -.883E+01 0.502E+01 0.413E+02   0.443E+00 -.349E+00 -.217E+00   -.256E-03 -.381E-04 0.257E-02
   0.339E+01 0.208E+01 -.384E+02   -.368E+01 -.232E+01 0.386E+02   0.277E+00 0.204E+00 -.201E+00   0.148E-03 0.152E-03 -.361E-02
   -.314E+01 0.842E+01 0.471E+01   0.342E+01 -.881E+01 -.481E+01   -.227E+00 0.389E+00 0.261E-01   0.189E-03 -.157E-03 0.105E-02
   -.864E+01 0.449E+01 0.393E+02   0.920E+01 -.484E+01 -.396E+02   -.532E+00 0.314E+00 0.179E+00   -.557E-04 -.131E-03 0.277E-02
   -.305E+01 -.204E+01 0.335E+02   0.338E+01 0.208E+01 -.335E+02   -.289E+00 -.447E-01 0.973E-01   0.171E-04 -.920E-04 -.375E-02
   0.461E+01 -.555E+01 0.170E+01   -.486E+01 0.599E+01 -.178E+01   0.281E+00 -.494E+00 0.149E-01   -.130E-03 0.163E-03 0.101E-02
   -.831E+01 0.490E+01 0.443E+02   0.886E+01 -.512E+01 -.445E+02   -.503E+00 0.261E+00 0.249E+00   0.235E-03 0.383E-04 0.277E-02
   -.252E+01 0.429E+01 -.288E+01   0.285E+01 -.471E+01 0.301E+01   -.368E+00 0.477E+00 -.138E+00   -.114E-03 0.117E-03 -.356E-02
   0.306E+01 0.149E+01 -.400E+02   -.334E+01 -.159E+01 0.402E+02   0.284E+00 0.102E+00 -.342E+00   -.203E-03 0.666E-05 0.125E-02
   0.860E+01 -.490E+01 -.370E+02   -.917E+01 0.513E+01 0.372E+02   0.586E+00 -.234E+00 -.189E+00   0.404E-04 0.186E-03 0.247E-02
   0.307E+01 -.668E+01 -.403E+01   -.330E+01 0.708E+01 0.406E+01   0.200E+00 -.393E+00 0.542E-01   -.172E-04 -.235E-03 -.361E-02
   -.497E+01 -.286E+01 0.391E+02   0.519E+01 0.310E+01 -.393E+02   -.271E+00 -.219E+00 0.259E+00   0.122E-03 -.359E-04 0.895E-03
   -.113E+02 0.145E+02 0.325E+03   0.131E+02 -.148E+02 -.343E+03   -.171E+01 -.119E+00 0.182E+02   -.850E-03 -.276E-03 0.481E-02
   0.101E+02 0.226E+01 -.321E+03   -.130E+02 -.110E+01 0.338E+03   0.310E+01 -.153E+01 -.179E+02   0.765E-03 0.119E-02 -.861E-03
   0.166E+02 0.256E+01 0.327E+03   -.198E+02 -.149E+01 -.349E+03   0.304E+01 -.149E+01 0.218E+02   -.340E-03 0.207E-03 -.226E-02
   0.597E+01 0.151E+02 -.327E+03   -.467E+01 -.183E+02 0.346E+03   -.180E+01 0.325E+01 -.181E+02   0.238E-04 0.882E-04 -.280E-02
   -.878E+01 0.166E+02 0.331E+03   0.790E+01 -.194E+02 -.352E+03   0.136E+01 0.251E+01 0.211E+02   0.119E-02 -.134E-02 -.313E-02
   0.641E+01 -.521E+01 -.325E+03   -.951E+01 0.737E+01 0.344E+03   0.352E+01 -.253E+01 -.187E+02   0.975E-03 0.196E-02 0.435E-02
   0.806E+01 -.137E+02 0.324E+03   -.881E+01 0.146E+02 -.346E+03   0.458E+00 -.487E+00 0.218E+02   -.992E-03 -.120E-02 0.420E-02
   -.666E+01 -.451E+01 -.327E+03   0.796E+01 0.300E+01 0.348E+03   -.131E+01 0.183E+01 -.217E+02   0.986E-03 0.178E-03 -.109E-02
   -.565E+01 0.936E+01 0.318E+03   0.886E+01 -.109E+02 -.336E+03   -.384E+01 0.157E+01 0.179E+02   0.350E-03 -.636E-03 -.214E-02
   0.105E+02 -.920E+01 -.333E+03   -.121E+02 0.118E+02 0.355E+03   0.178E+01 -.310E+01 -.224E+02   -.644E-03 -.373E-04 -.286E-02
   0.105E+01 -.136E+02 0.324E+03   0.105E+00 0.156E+02 -.341E+03   -.151E+01 -.193E+01 0.177E+02   0.545E-03 0.221E-02 -.256E-02
   -.129E+01 0.179E+01 -.325E+03   0.366E+01 -.406E+01 0.346E+03   -.291E+01 0.258E+01 -.213E+02   0.593E-03 -.965E-03 0.333E-02
   0.645E+01 0.420E+01 0.329E+03   -.766E+01 -.379E+01 -.350E+03   0.121E+01 -.411E+00 0.214E+02   0.868E-03 0.117E-02 0.414E-02
   -.673E+01 0.136E+02 -.323E+03   0.915E+01 -.145E+02 0.345E+03   -.262E+01 0.478E+00 -.218E+02   -.924E-03 0.663E-04 -.397E-03
   -.184E+02 0.601E+01 0.323E+03   0.216E+02 -.823E+01 -.341E+03   -.334E+01 0.260E+01 0.180E+02   0.640E-03 0.322E-04 -.208E-02
   -.311E+01 0.603E+01 -.321E+03   0.163E+01 -.753E+01 0.339E+03   0.208E+01 0.151E+01 -.181E+02   -.347E-03 0.624E-03 -.309E-02
   0.348E+01 0.995E+01 0.332E+03   -.231E+01 -.128E+02 -.354E+03   -.157E+01 0.320E+01 0.225E+02   -.108E-02 -.201E-02 -.272E-02
   -.734E+00 -.140E+01 -.328E+03   0.315E+01 0.984E+00 0.350E+03   -.281E+01 0.715E+00 -.215E+02   -.117E-02 0.135E-02 0.450E-02
   -.112E+02 -.218E+01 0.322E+03   0.122E+02 0.954E+00 -.340E+03   -.739E+00 0.157E+01 0.179E+02   0.986E-03 -.446E-04 0.386E-02
   0.111E+02 -.139E+02 -.323E+03   -.127E+02 0.152E+02 0.341E+03   0.163E+01 -.120E+01 -.179E+02   -.908E-03 -.100E-02 -.518E-03
   0.115E+01 -.975E+01 0.328E+03   -.376E+01 0.118E+02 -.350E+03   0.315E+01 -.201E+01 0.221E+02   0.880E-05 -.946E-04 -.226E-02
   -.816E+01 -.172E+02 -.331E+03   0.967E+01 0.194E+02 0.352E+03   -.142E+01 -.185E+01 -.213E+02   0.356E-03 -.245E-03 -.285E-02
   -.668E+01 -.705E+01 0.324E+03   0.596E+01 0.104E+02 -.342E+03   0.126E+01 -.374E+01 0.183E+02   -.501E-03 0.966E-03 -.197E-02
   0.687E+01 -.307E+01 -.324E+03   -.950E+01 0.427E+01 0.342E+03   0.307E+01 -.138E+01 -.184E+02   -.595E-03 -.211E-02 0.387E-02
   0.985E-01 0.418E+00 0.427E+00   0.431E-01 -.378E+00 -.430E+00   -.706E-02 0.912E-01 -.347E-01   -.234E-04 0.925E-05 -.276E-03
   -.229E-01 -.105E+01 0.395E+01   -.133E+00 0.967E+00 -.374E+01   0.284E-01 0.270E+00 -.293E+00   0.235E-04 0.416E-04 -.509E-03
   0.926E+00 -.781E+00 0.110E+01   -.867E+00 0.652E+00 -.994E+00   -.258E+00 0.247E+00 -.932E-01   0.473E-04 0.140E-05 0.773E-03
   -.787E-01 -.475E-01 -.102E+01   0.707E-01 -.362E-01 0.898E+00   -.647E-01 -.896E-01 0.112E+00   0.355E-04 -.171E-04 -.246E-03
   -.738E-01 0.116E+01 -.348E+01   0.234E+00 -.991E+00 0.339E+01   -.381E-01 -.270E+00 0.236E+00   -.152E-04 0.266E-04 -.518E-03
   -.431E-01 -.148E+00 0.104E+01   -.504E-01 0.260E+00 -.107E+01   0.782E-02 -.472E-01 -.462E-01   -.302E-04 -.979E-05 0.724E-03
 -----------------------------------------------------------------------------------------------
   0.320E+00 -.311E+00 0.797E+00   0.164E-12 -.158E-12 -.238E-12   -.368E+00 0.264E+00 -.762E+00   -.407E-04 0.938E-04 -.291E-03
 
 
 POSITION                                       TOTAL-FORCE (eV/Angst)
 -----------------------------------------------------------------------------------
      0.05965      1.66686      2.40659        -0.073085     -0.053276     -0.140578
      0.07473      0.04969      7.11836        -0.021626     -0.035878      0.036951
      1.45969      0.84367     11.79665         0.053910     -0.005052     -0.073680
     -1.32357      4.08364      2.30040         0.032647     -0.039025     -0.099810
     -1.31393      2.47061      7.02070         0.050329     -0.002627      0.006157
      0.06593      3.27235     11.78574         0.029995     -0.048245     -0.070694
      2.86540      1.66835      2.32127         0.052182      0.031455      0.060690
      2.87677      0.05154      7.08890        -0.037485      0.054096     -0.006928
      4.25198      0.85403     11.85700        -0.001237     -0.002651     -0.090273
      1.46507      4.09341      2.39905         0.012665      0.004311     -0.061063
      1.47815      2.48174      7.07378        -0.033329      0.016903      0.076738
      2.86606      3.27671     11.75280        -0.049998      0.022090      0.063308
      1.41852      0.89312      1.34913         0.098979     -0.388932      0.114237
      0.09137      0.04848      3.37954         0.251179     -0.367541     -0.068177
      0.12967      1.64818      6.10595        -0.190387     -0.423960     -0.046549
      1.49884      0.88863      8.09381        -0.504736      0.063080      0.092945
      0.02212      0.07435     10.83445         0.484056     -0.328888      0.112042
      0.06820      1.66571     12.79862         0.423935     -0.365574      0.079098
      0.10928      3.23121      1.40531        -0.300564      0.462209      0.120255
     -1.37620      2.48054      3.30418        -0.000264      0.315778     -0.039742
     -1.31547      4.11903      6.06152        -0.637872      0.029273     -0.091975
      0.07569      3.28023      8.01272         0.175692     -0.469356      0.171890
     -1.30719      2.40842     10.78458        -0.349406      0.077772     -0.083088
     -1.33631      4.06051     12.72065        -0.539438      0.311473      0.058961
      4.30187      0.85543      1.42520         0.005378      0.001141      0.169999
      2.81581      0.10553      3.32362        -0.196655     -0.446775     -0.074256
      2.84864      1.66019      6.07193        -0.149043      0.378463     -0.163825
      4.24138      0.90159      8.08131         0.607866      0.002673      0.066528
      2.88990      0.04747     10.85970        -0.401471      0.376176     -0.057873
      2.85016      1.68010     12.76235        -0.388454      0.303743     -0.036199
      2.83376      3.28700      1.34851         0.255438      0.340164      0.082762
      1.50626      2.44285      3.37628        -0.041627      0.085014     -0.011239
      1.49974      4.09102      6.11387         0.533836      0.024266     -0.159743
      2.86854      3.25337      8.03979         0.089525      0.376319     -0.024859
      1.43432      2.45191     10.78377         0.539462     -0.357043      0.018639
      1.47837      4.05780     12.78618         0.440633     -0.173549      0.121596
      1.47391      0.82857      4.72970         0.135512      0.132245     -0.039147
      0.06179      1.56834      9.46058        -0.125233      0.186483     -0.088882
     -2.68763      4.82816     -0.01804        -0.196023      0.117856      0.009130
      2.89826      3.32141      4.71574        -0.072161     -0.172448     -0.009561
      2.87739      1.75802      9.41659         0.121697     -0.097591      0.148769
      1.42542      2.50784      0.00382        -0.084824      0.065427     -0.072554
 -----------------------------------------------------------------------------------
    total drift:                               -0.047937     -0.047116      0.034971


--------------------------------------------------------------------------------------------------------



  FREE ENERGIE OF THE ION-ELECTRON SYSTEM (eV)
  ---------------------------------------------------
  free  energy   TOTEN  =      -247.35764645 eV

  energy  without entropy=     -247.35702384  energy(sigma->0) =     -247.35733515
 


--------------------------------------------------------------------------------------------------------


    POTLOK:  cpu time    0.0804: real time    0.0807


--------------------------------------------------------------------------------------------------------


 stress matrix after NEB project (eV)
     -1.64228     -0.66378     -0.27161
     -0.66378     -1.18812     -0.25269
     -0.27161     -0.25269      0.19581
  FORCES: max atom, RMS     0.647184    0.385238
  FORCE total and by dimension    2.496630    0.637872
  Stress total and by dimension    2.302932    1.642280


--------------------------------------------------------------------------------------------------------


    WAVPRE:  cpu time    0.0046: real time    0.0047
 FEWALD executed in parallel
    FEWALD:  cpu time    0.0008: real time    0.0008
    GENKIN:  cpu time    0.0155: real time    0.0155

 real space projection operators:
  total allocation   :       7725.42 KBytes
  max/ min on nodes  :       1082.48        846.67

    ORTHCH:  cpu time    1.5158: real time    1.5285
     LOOP+:  cpu time  747.7990: real time  753.6323