 vasp.5.4.1 05Feb16 (build Apr 23 2022 14:15:44) complex                        
  
 executed on           IFC91_ompi date 2024.06.23  12:29:33
 running on   64 total cores
 distrk:  each k-point on   64 cores,    1 groups
 distr:  one band on NCORES_PER_BAND=   8 cores,    8 groups


--------------------------------------------------------------------------------------------------------


 INCAR:
 POTCAR:    PAW_PBE Mo 08Apr2002                  
 POTCAR:    PAW_PBE O 08Apr2002                   
 POTCAR:    PAW_PBE Mo 08Apr2002                  
   VRHFIN =Mo: 4p5s4d                                                           
   LEXCH  = PE                                                                  
   EATOM  =   217.5176 eV,   15.9871 Ry                                         
                                                                                
   TITEL  = PAW_PBE Mo 08Apr2002                                                
   LULTRA =        F    use ultrasoft PP ?                                      
   IUNSCR =        1    unscreen: 0-lin 1-nonlin 2-no                           
   RPACOR =    2.200    partial core radius                                     
   POMASS =   95.940; ZVAL   =    6.000    mass and valenz                      
   RCORE  =    2.750    outmost cutoff radius                                   
   RWIGS  =    2.750; RWIGS  =    1.455    wigner-seitz radius (au A)           
   ENMAX  =  224.584; ENMIN  =  168.438 eV                                      
   RCLOC  =    2.111    cutoff for local pot                                    
   LCOR   =        T    correct aug charges                                     
   LPAW   =        T    paw PP                                                  
   EAUG   =  345.278                                                            
   DEXC   =    0.000                                                            
   RMAX   =    2.821    core radius for proj-oper                               
   RAUG   =    1.300    factor for augmentation sphere                          
   RDEP   =    2.815    radius for radial grids                                 
   RDEPT  =    2.211    core radius for aug-charge                              
                                                                                
   Atomic configuration                                                         
   12 entries                                                                   
     n  l   j            E        occ.                                          
     1  0  0.50    -19819.0341   2.0000                                         
     2  0  0.50     -2799.0127   2.0000                                         
     2  1  1.50     -2502.0276   6.0000                                         
     3  0  0.50      -476.4448   2.0000                                         
     3  1  1.50      -379.1496   6.0000                                         
     3  2  2.50      -220.9367  10.0000                                         
     4  0  0.50       -64.3378   2.0000                                         
     4  1  1.50       -38.4773   6.0000                                         
     4  2  2.50        -3.7535   5.0000                                         
     5  0  0.50        -4.0862   1.0000                                         
     5  1  0.50        -2.7701   0.0000                                         
     4  3  2.50        -1.3606   0.0000                                         
   Description                                                                  
     l       E           TYP  RCUT    TYP  RCUT                                 
     2     -3.7534765     23  2.500                                             
     2     -5.1140591     23  2.500                                             
     0     -4.0861560     23  2.600                                             
     0     13.6058260     23  2.600                                             
     1      5.4423304     23  2.750                                             
     1     27.2116520     23  2.750                                             
  local pseudopotential read in
  partial core-charges read in
  partial kinetic energy density read in
  atomic valenz-charges read in
  non local Contribution for L=           2  read in
    real space projection operators read in
  non local Contribution for L=           2  read in
    real space projection operators read in
  non local Contribution for L=           0  read in
    real space projection operators read in
  non local Contribution for L=           0  read in
    real space projection operators read in
  non local Contribution for L=           1  read in
    real space projection operators read in
  non local Contribution for L=           1  read in
    real space projection operators read in
    PAW grid and wavefunctions read in
 
   number of l-projection  operators is LMAX  =           6
   number of lm-projection operators is LMMAX =          18
 
 POTCAR:    PAW_PBE O 08Apr2002                   
   VRHFIN =O: s2p4                                                              
   LEXCH  = PE                                                                  
   EATOM  =   432.3788 eV,   31.7789 Ry                                         
                                                                                
   TITEL  = PAW_PBE O 08Apr2002                                                 
   LULTRA =        F    use ultrasoft PP ?                                      
   IUNSCR =        1    unscreen: 0-lin 1-nonlin 2-no                           
   RPACOR =    1.200    partial core radius                                     
   POMASS =   16.000; ZVAL   =    6.000    mass and valenz                      
   RCORE  =    1.520    outmost cutoff radius                                   
   RWIGS  =    1.550; RWIGS  =    0.820    wigner-seitz radius (au A)           
   ENMAX  =  400.000; ENMIN  =  300.000 eV                                      
   ICORE  =        2    local potential                                         
   LCOR   =        T    correct aug charges                                     
   LPAW   =        T    paw PP                                                  
   EAUG   =  605.392                                                            
   DEXC   =    0.000                                                            
   RMAX   =    1.553    core radius for proj-oper                               
   RAUG   =    1.300    factor for augmentation sphere                          
   RDEP   =    1.550    radius for radial grids                                 
   RDEPT  =    1.329    core radius for aug-charge                              
                                                                                
   Atomic configuration                                                         
    4 entries                                                                   
     n  l   j            E        occ.                                          
     1  0  0.50      -514.6923   2.0000                                         
     2  0  0.50       -23.9615   2.0000                                         
     2  1  0.50        -9.0305   4.0000                                         
     3  2  1.50        -9.5241   0.0000                                         
   Description                                                                  
     l       E           TYP  RCUT    TYP  RCUT                                 
     0    -23.9615318     23  1.200                                             
     0     -9.5240782     23  1.200                                             
     1     -9.0304911     23  1.520                                             
     1      8.1634956     23  1.520                                             
     2     -9.5240782      7  1.500                                             
  local pseudopotential read in
  partial core-charges read in
  partial kinetic energy density read in
  kinetic energy density of atom read in
  atomic valenz-charges read in
  non local Contribution for L=           0  read in
    real space projection operators read in
  non local Contribution for L=           0  read in
    real space projection operators read in
  non local Contribution for L=           1  read in
    real space projection operators read in
  non local Contribution for L=           1  read in
    real space projection operators read in
    PAW grid and wavefunctions read in
 
   number of l-projection  operators is LMAX  =           4
   number of lm-projection operators is LMMAX =           8
 
 Optimization of the real space projectors (new method)

 maximal supplied QI-value         = 13.61
 optimisation between [QCUT,QGAM] = [ 12.52, 25.04] = [ 43.88,175.51] Ry 
 Optimized for a Real-space Cutoff    1.56 Angstroem

   l    n(q)    QCUT    max X(q) W(low)/X(q) W(high)/X(q)  e(spline) 
   2     11    12.518    80.908    0.42E-03    0.30E-03    0.14E-05
   2     11    12.518    79.000    0.42E-03    0.30E-03    0.14E-05
   0     12    12.518    52.066    0.58E-04    0.50E-04    0.55E-06
   0     12    12.518    24.514    0.48E-04    0.41E-04    0.46E-06
   1     11    12.518    16.033    0.62E-04    0.13E-03    0.37E-06
   1     11    12.518    11.179    0.47E-04    0.10E-03    0.31E-06
 Optimization of the real space projectors (new method)

 maximal supplied QI-value         = 24.76
 optimisation between [QCUT,QGAM] = [ 12.38, 25.00] = [ 42.90,175.06] Ry 
 Optimized for a Real-space Cutoff    1.13 Angstroem

   l    n(q)    QCUT    max X(q) W(low)/X(q) W(high)/X(q)  e(spline) 
   0      8    12.378    20.381    0.16E-03    0.54E-05    0.27E-06
   0      8    12.378    15.268    0.17E-03    0.61E-05    0.29E-06
   1      8    12.378     5.964    0.38E-03    0.23E-03    0.28E-06
   1      8    12.378     5.382    0.33E-03    0.20E-03    0.25E-06
  PAW_PBE Mo 08Apr2002                  :
 energy of atom  1       EATOM= -217.5176
 kinetic energy error for atom=    0.0005 (will be added to EATOM!!)
  PAW_PBE O 08Apr2002                   :
 energy of atom  2       EATOM= -432.3788
 kinetic energy error for atom=    0.0168 (will be added to EATOM!!)
 
 
 POSCAR: Mo  O                                   
  positions in cartesian coordinates
  No initial velocities read in
 exchange correlation table for  LEXCH =        8
   RHO(1)=    0.500       N(1)  =     2000
   RHO(2)=  100.500       N(2)  =     4000

 VTST: version 3.1, (03/28/14)

 CHAIN: initializing optimizer
 
 OPT: Using VASP Conjugate-Gradient optimizer
 CHAIN: Read ICHAIN            0
 
 POSCAR: Mo  O                                   
  positions in cartesian coordinates
  No initial velocities read in
 


--------------------------------------------------------------------------------------------------------


 ion  position               nearest neighbor table
   1  0.269  0.492  0.483-   9 1.99  10 1.99   8 1.99  12 2.00   7 2.08   5 2.08   3 2.49   3 3.11

   2  0.731  0.992  0.017-  10 1.99   9 1.99   7 1.99  11 2.00   8 2.08   6 2.08   4 2.49   4 3.11

   3  0.731  0.508  0.517-  11 1.99  12 1.99   6 1.99  10 2.00   5 2.08   7 2.08   1 2.49   1 3.11

   4  0.269  0.008  0.983-  12 1.99  11 1.99   5 1.99   9 2.00   6 2.08   8 2.08   2 2.49   2 3.11

   5  0.110  0.303  0.702-   4 1.99   3 2.08   1 2.08
   6  0.890  0.803  0.798-   3 1.99   4 2.08   2 2.08
   7  0.890  0.697  0.298-   2 1.99   1 2.08   3 2.08
   8  0.110  0.197  0.202-   1 1.99   2 2.08   4 2.08
   9  0.387  0.783  0.765-   1 1.99   2 1.99   4 2.00
  10  0.613  0.283  0.735-   2 1.99   1 1.99   3 2.00
  11  0.613  0.217  0.235-   3 1.99   4 1.99   2 2.00
  12  0.387  0.717  0.265-   4 1.99   3 1.99   1 2.00
 
  LATTYP: Found a simple monoclinic cell.
 ALAT       =     5.5870554064
 B/A-ratio  =     0.8762546151
 C/A-ratio  =     2.6311872447
 COS(beta)  =    -0.9433262801
  
  Lattice vectors:
  
 A1 = (   5.5870509261,  -0.0000111744,  -0.0070755271)
 A2 = (   0.0000089487,  -4.8956830840,  -0.0000738690)
 A3 = ( -13.8736191161,  -0.0000474796,  -4.8610705852)


Analysis of symmetry for initial positions (statically):
=====================================================================
 Subroutine PRICEL returns:
 Original cell was already a primitive cell.
 

 Routine SETGRP: Setting up the symmetry group for a 
 simple monoclinic supercell.


 Subroutine GETGRP returns: Found  2 space group operations
 (whereof  2 operations were pure point group operations)
 out of a pool of  4 trial point group operations.


The static configuration has the point symmetry S_2 .


Analysis of symmetry for dynamics (positions and initial velocities):
=====================================================================
 Subroutine PRICEL returns:
 Original cell was already a primitive cell.
 

 Routine SETGRP: Setting up the symmetry group for a 
 simple monoclinic supercell.


 Subroutine GETGRP returns: Found  2 space group operations
 (whereof  2 operations were pure point group operations)
 out of a pool of  4 trial point group operations.


The dynamic configuration has the point symmetry S_2 .


Analysis of structural, dynamic, and magnetic symmetry:
=====================================================================
 Subroutine PRICEL returns:
 Original cell was already a primitive cell.
 

 Routine SETGRP: Setting up the symmetry group for a 
 simple monoclinic supercell.


 Subroutine GETGRP returns: Found  2 space group operations
 (whereof  2 operations were pure point group operations)
 out of a pool of  4 trial point group operations.


The magnetic configuration has the point symmetry S_2 .


 Subroutine INISYM returns: Found  2 space group operations
 (whereof  2 operations are pure point group operations),
 and found     1 'primitive' translations

 
 
 KPOINTS: KPOINTS created by Atomic Simulation Env

Automatic generation of k-mesh.
Space group operators:
 irot       det(A)        alpha          n_x          n_y          n_z        tau_x        tau_y        tau_z
    1     1.000000     0.000000     1.000000     0.000000     0.000000     0.000000     0.000000     0.000000
    2    -1.000000     0.000000     1.000000     0.000000     0.000000     0.000000     0.000000     0.000000
 
 Subroutine IBZKPT returns following result:
 ===========================================
 
 Found    172 irreducible k-points:
 
 Following reciprocal coordinates:
            Coordinates               Weight
  0.000000  0.000000  0.000000      1.000000
  0.142857 -0.000000  0.000000      2.000000
  0.285714 -0.000000 -0.000000      2.000000
  0.428571 -0.000000  0.000000      2.000000
 -0.000000  0.142857  0.000000      2.000000
  0.142857  0.142857  0.000000      2.000000
  0.285714  0.142857  0.000000      2.000000
  0.428571  0.142857  0.000000      2.000000
 -0.428571  0.142857  0.000000      2.000000
 -0.285714  0.142857  0.000000      2.000000
 -0.142857  0.142857  0.000000      2.000000
 -0.000000  0.285714  0.000000      2.000000
  0.142857  0.285714 -0.000000      2.000000
  0.285714  0.285714  0.000000      2.000000
  0.428571  0.285714  0.000000      2.000000
 -0.428571  0.285714  0.000000      2.000000
 -0.285714  0.285714  0.000000      2.000000
 -0.142857  0.285714  0.000000      2.000000
 -0.000000  0.428571  0.000000      2.000000
  0.142857  0.428571  0.000000      2.000000
  0.285714  0.428571  0.000000      2.000000
  0.428571  0.428571  0.000000      2.000000
 -0.428571  0.428571  0.000000      2.000000
 -0.285714  0.428571  0.000000      2.000000
 -0.142857  0.428571  0.000000      2.000000
 -0.000000 -0.000000  0.142857      2.000000
  0.142857 -0.000000  0.142857      2.000000
  0.285714  0.000000  0.142857      2.000000
  0.428571 -0.000000  0.142857      2.000000
 -0.428571  0.000000  0.142857      2.000000
 -0.285714  0.000000  0.142857      2.000000
 -0.142857 -0.000000  0.142857      2.000000
 -0.000000  0.142857  0.142857      2.000000
  0.142857  0.142857  0.142857      2.000000
  0.285714  0.142857  0.142857      2.000000
  0.428571  0.142857  0.142857      2.000000
 -0.428571  0.142857  0.142857      2.000000
 -0.285714  0.142857  0.142857      2.000000
 -0.142857  0.142857  0.142857      2.000000
 -0.000000  0.285714  0.142857      2.000000
  0.142857  0.285714  0.142857      2.000000
  0.285714  0.285714  0.142857      2.000000
  0.428571  0.285714  0.142857      2.000000
 -0.428571  0.285714  0.142857      2.000000
 -0.285714  0.285714  0.142857      2.000000
 -0.142857  0.285714  0.142857      2.000000
  0.000000  0.428571  0.142857      2.000000
  0.142857  0.428571  0.142857      2.000000
  0.285714  0.428571  0.142857      2.000000
  0.428571  0.428571  0.142857      2.000000
 -0.428571  0.428571  0.142857      2.000000
 -0.285714  0.428571  0.142857      2.000000
 -0.142857  0.428571  0.142857      2.000000
  0.000000 -0.428571  0.142857      2.000000
  0.142857 -0.428571  0.142857      2.000000
  0.285714 -0.428571  0.142857      2.000000
  0.428571 -0.428571  0.142857      2.000000
 -0.428571 -0.428571  0.142857      2.000000
 -0.285714 -0.428571  0.142857      2.000000
 -0.142857 -0.428571  0.142857      2.000000
  0.000000 -0.285714  0.142857      2.000000
  0.142857 -0.285714  0.142857      2.000000
  0.285714 -0.285714  0.142857      2.000000
  0.428571 -0.285714  0.142857      2.000000
 -0.428571 -0.285714  0.142857      2.000000
 -0.285714 -0.285714  0.142857      2.000000
 -0.142857 -0.285714  0.142857      2.000000
 -0.000000 -0.142857  0.142857      2.000000
  0.142857 -0.142857  0.142857      2.000000
  0.285714 -0.142857  0.142857      2.000000
  0.428571 -0.142857  0.142857      2.000000
 -0.428571 -0.142857  0.142857      2.000000
 -0.285714 -0.142857  0.142857      2.000000
 -0.142857 -0.142857  0.142857      2.000000
  0.000000 -0.000000  0.285714      2.000000
  0.142857 -0.000000  0.285714      2.000000
  0.285714 -0.000000  0.285714      2.000000
  0.428571 -0.000000  0.285714      2.000000
 -0.428571 -0.000000  0.285714      2.000000
 -0.285714 -0.000000  0.285714      2.000000
 -0.142857 -0.000000  0.285714      2.000000
  0.000000  0.142857  0.285714      2.000000
  0.142857  0.142857  0.285714      2.000000
  0.285714  0.142857  0.285714      2.000000
  0.428571  0.142857  0.285714      2.000000
 -0.428571  0.142857  0.285714      2.000000
 -0.285714  0.142857  0.285714      2.000000
 -0.142857  0.142857  0.285714      2.000000
  0.000000  0.285714  0.285714      2.000000
  0.142857  0.285714  0.285714      2.000000
  0.285714  0.285714  0.285714      2.000000
  0.428571  0.285714  0.285714      2.000000
 -0.428571  0.285714  0.285714      2.000000
 -0.285714  0.285714  0.285714      2.000000
 -0.142857  0.285714  0.285714      2.000000
 -0.000000  0.428571  0.285714      2.000000
  0.142857  0.428571  0.285714      2.000000
  0.285714  0.428571  0.285714      2.000000
  0.428571  0.428571  0.285714      2.000000
 -0.428571  0.428571  0.285714      2.000000
 -0.285714  0.428571  0.285714      2.000000
 -0.142857  0.428571  0.285714      2.000000
  0.000000 -0.428571  0.285714      2.000000
  0.142857 -0.428571  0.285714      2.000000
  0.285714 -0.428571  0.285714      2.000000
  0.428571 -0.428571  0.285714      2.000000
 -0.428571 -0.428571  0.285714      2.000000
 -0.285714 -0.428571  0.285714      2.000000
 -0.142857 -0.428571  0.285714      2.000000
 -0.000000 -0.285714  0.285714      2.000000
  0.142857 -0.285714  0.285714      2.000000
  0.285714 -0.285714  0.285714      2.000000
  0.428571 -0.285714  0.285714      2.000000
 -0.428571 -0.285714  0.285714      2.000000
 -0.285714 -0.285714  0.285714      2.000000
 -0.142857 -0.285714  0.285714      2.000000
 -0.000000 -0.142857  0.285714      2.000000
  0.142857 -0.142857  0.285714      2.000000
  0.285714 -0.142857  0.285714      2.000000
  0.428571 -0.142857  0.285714      2.000000
 -0.428571 -0.142857  0.285714      2.000000
 -0.285714 -0.142857  0.285714      2.000000
 -0.142857 -0.142857  0.285714      2.000000
 -0.000000 -0.000000  0.428571      2.000000
  0.142857 -0.000000  0.428571      2.000000
  0.285714 -0.000000  0.428571      2.000000
  0.428571 -0.000000  0.428571      2.000000
 -0.428571  0.000000  0.428571      2.000000
 -0.285714 -0.000000  0.428571      2.000000
 -0.142857 -0.000000  0.428571      2.000000
 -0.000000  0.142857  0.428571      2.000000
  0.142857  0.142857  0.428571      2.000000
  0.285714  0.142857  0.428571      2.000000
  0.428571  0.142857  0.428571      2.000000
 -0.428571  0.142857  0.428571      2.000000
 -0.285714  0.142857  0.428571      2.000000
 -0.142857  0.142857  0.428571      2.000000
 -0.000000  0.285714  0.428571      2.000000
  0.142857  0.285714  0.428571      2.000000
  0.285714  0.285714  0.428571      2.000000
  0.428571  0.285714  0.428571      2.000000
 -0.428571  0.285714  0.428571      2.000000
 -0.285714  0.285714  0.428571      2.000000
 -0.142857  0.285714  0.428571      2.000000
  0.000000  0.428571  0.428571      2.000000
  0.142857  0.428571  0.428571      2.000000
  0.285714  0.428571  0.428571      2.000000
  0.428571  0.428571  0.428571      2.000000
 -0.428571  0.428571  0.428571      2.000000
 -0.285714  0.428571  0.428571      2.000000
 -0.142857  0.428571  0.428571      2.000000
 -0.000000 -0.428571  0.428571      2.000000
  0.142857 -0.428571  0.428571      2.000000
  0.285714 -0.428571  0.428571      2.000000
  0.428571 -0.428571  0.428571      2.000000
 -0.428571 -0.428571  0.428571      2.000000
 -0.285714 -0.428571  0.428571      2.000000
 -0.142857 -0.428571  0.428571      2.000000
 -0.000000 -0.285714  0.428571      2.000000
  0.142857 -0.285714  0.428571      2.000000
  0.285714 -0.285714  0.428571      2.000000
  0.428571 -0.285714  0.428571      2.000000
 -0.428571 -0.285714  0.428571      2.000000
 -0.285714 -0.285714  0.428571      2.000000
 -0.142857 -0.285714  0.428571      2.000000
 -0.000000 -0.142857  0.428571      2.000000
  0.142857 -0.142857  0.428571      2.000000
  0.285714 -0.142857  0.428571      2.000000
  0.428571 -0.142857  0.428571      2.000000
 -0.428571 -0.142857  0.428571      2.000000
 -0.285714 -0.142857  0.428571      2.000000
 -0.142857 -0.142857  0.428571      2.000000
 
 Following cartesian coordinates:
            Coordinates               Weight
  0.000000  0.000000  0.000000      1.000000
  0.025588 -0.000000  0.015134      2.000000
  0.051177 -0.000000  0.030268      2.000000
  0.076765 -0.000001  0.045401      2.000000
  0.000000  0.029180 -0.000000      2.000000
  0.025589  0.029180  0.015133      2.000000
  0.051177  0.029180  0.030267      2.000000
  0.076766  0.029180  0.045401      2.000000
 -0.076765  0.029181 -0.045402      2.000000
 -0.051177  0.029181 -0.030268      2.000000
 -0.025588  0.029180 -0.015134      2.000000
  0.000000  0.058360 -0.000001      2.000000
  0.025589  0.058360  0.015133      2.000000
  0.051177  0.058360  0.030267      2.000000
  0.076766  0.058360  0.045400      2.000000
 -0.076765  0.058361 -0.045402      2.000000
 -0.051177  0.058361 -0.030268      2.000000
 -0.025588  0.058361 -0.015135      2.000000
  0.000000  0.087541 -0.000001      2.000000
  0.025589  0.087540  0.015132      2.000000
  0.051177  0.087540  0.030266      2.000000
  0.076766  0.087540  0.045400      2.000000
 -0.076765  0.087541 -0.045403      2.000000
 -0.051177  0.087541 -0.030269      2.000000
 -0.025588  0.087541 -0.015135      2.000000
  0.000037 -0.000000  0.029282      2.000000
  0.025626 -0.000001  0.044416      2.000000
  0.051214 -0.000001  0.059550      2.000000
  0.076803 -0.000001  0.074684      2.000000
 -0.076728  0.000000 -0.016119      2.000000
 -0.051140 -0.000000 -0.000985      2.000000
 -0.025551 -0.000000  0.014148      2.000000
  0.000037  0.029180  0.029282      2.000000
  0.025626  0.029180  0.044415      2.000000
  0.051214  0.029179  0.059549      2.000000
  0.076803  0.029179  0.074683      2.000000
 -0.076728  0.029180 -0.016120      2.000000
 -0.051140  0.029180 -0.000986      2.000000
 -0.025551  0.029180  0.014148      2.000000
  0.000037  0.058360  0.029281      2.000000
  0.025626  0.058360  0.044415      2.000000
  0.051214  0.058360  0.059549      2.000000
  0.076803  0.058359  0.074683      2.000000
 -0.076728  0.058361 -0.016120      2.000000
 -0.051140  0.058360 -0.000986      2.000000
 -0.025551  0.058360  0.014147      2.000000
  0.000037  0.087540  0.029281      2.000000
  0.025626  0.087540  0.044415      2.000000
  0.051214  0.087540  0.059548      2.000000
  0.076803  0.087540  0.074682      2.000000
 -0.076728  0.087541 -0.016121      2.000000
 -0.051140  0.087541 -0.000987      2.000000
 -0.025551  0.087540  0.014147      2.000000
  0.000037 -0.087541  0.029284      2.000000
  0.025625 -0.087541  0.044417      2.000000
  0.051214 -0.087541  0.059551      2.000000
  0.076802 -0.087542  0.074685      2.000000
 -0.076729 -0.087541 -0.016118      2.000000
 -0.051140 -0.087541 -0.000984      2.000000
 -0.025552 -0.087541  0.014150      2.000000
  0.000037 -0.058361  0.029283      2.000000
  0.025625 -0.058361  0.044417      2.000000
  0.051214 -0.058361  0.059551      2.000000
  0.076802 -0.058361  0.074684      2.000000
 -0.076729 -0.058360 -0.016118      2.000000
 -0.051140 -0.058361 -0.000985      2.000000
 -0.025552 -0.058361  0.014149      2.000000
  0.000037 -0.029181  0.029283      2.000000
  0.025626 -0.029181  0.044416      2.000000
  0.051214 -0.029181  0.059550      2.000000
  0.076803 -0.029181  0.074684      2.000000
 -0.076728 -0.029180 -0.016119      2.000000
 -0.051140 -0.029180 -0.000985      2.000000
 -0.025551 -0.029180  0.014149      2.000000
  0.000074 -0.000001  0.058564      2.000000
  0.025663 -0.000001  0.073698      2.000000
  0.051251 -0.000001  0.088832      2.000000
  0.076840 -0.000001  0.103966      2.000000
 -0.076691 -0.000000  0.013163      2.000000
 -0.051103 -0.000001  0.028297      2.000000
 -0.025514 -0.000001  0.043431      2.000000
  0.000074  0.029179  0.058564      2.000000
  0.025663  0.029179  0.073698      2.000000
  0.051251  0.029179  0.088831      2.000000
  0.076840  0.029179  0.103965      2.000000
 -0.076691  0.029180  0.013163      2.000000
 -0.051103  0.029180  0.028296      2.000000
 -0.025514  0.029180  0.043430      2.000000
  0.000074  0.058360  0.058563      2.000000
  0.025663  0.058359  0.073697      2.000000
  0.051251  0.058359  0.088831      2.000000
  0.076840  0.058359  0.103965      2.000000
 -0.076691  0.058360  0.013162      2.000000
 -0.051103  0.058360  0.028296      2.000000
 -0.025514  0.058360  0.043430      2.000000
  0.000074  0.087540  0.058563      2.000000
  0.025663  0.087540  0.073697      2.000000
  0.051251  0.087539  0.088831      2.000000
  0.076840  0.087539  0.103964      2.000000
 -0.076691  0.087540  0.013162      2.000000
 -0.051103  0.087540  0.028295      2.000000
 -0.025514  0.087540  0.043429      2.000000
  0.000074 -0.087542  0.058566      2.000000
  0.025662 -0.087542  0.073699      2.000000
  0.051251 -0.087542  0.088833      2.000000
  0.076839 -0.087542  0.103967      2.000000
 -0.076691 -0.087541  0.013164      2.000000
 -0.051103 -0.087541  0.028298      2.000000
 -0.025515 -0.087541  0.043432      2.000000
  0.000074 -0.058361  0.058565      2.000000
  0.025663 -0.058362  0.073699      2.000000
  0.051251 -0.058362  0.088833      2.000000
  0.076840 -0.058362  0.103967      2.000000
 -0.076691 -0.058361  0.013164      2.000000
 -0.051103 -0.058361  0.028298      2.000000
 -0.025514 -0.058361  0.043431      2.000000
  0.000074 -0.029181  0.058565      2.000000
  0.025663 -0.029181  0.073699      2.000000
  0.051251 -0.029181  0.088832      2.000000
  0.076840 -0.029182  0.103966      2.000000
 -0.076691 -0.029181  0.013163      2.000000
 -0.051103 -0.029181  0.028297      2.000000
 -0.025514 -0.029181  0.043431      2.000000
  0.000111 -0.000001  0.087846      2.000000
  0.025700 -0.000002  0.102980      2.000000
  0.051288 -0.000002  0.118114      2.000000
  0.076877 -0.000002  0.133248      2.000000
 -0.076654 -0.000001  0.042445      2.000000
 -0.051066 -0.000001  0.057579      2.000000
 -0.025477 -0.000001  0.072713      2.000000
  0.000111  0.029179  0.087846      2.000000
  0.025700  0.029179  0.102980      2.000000
  0.051288  0.029179  0.118114      2.000000
  0.076877  0.029178  0.133247      2.000000
 -0.076654  0.029179  0.042445      2.000000
 -0.051066  0.029179  0.057578      2.000000
 -0.025477  0.029179  0.072712      2.000000
  0.000111  0.058359  0.087846      2.000000
  0.025700  0.058359  0.102979      2.000000
  0.051288  0.058359  0.118113      2.000000
  0.076877  0.058359  0.133247      2.000000
 -0.076654  0.058360  0.042444      2.000000
 -0.051066  0.058359  0.057578      2.000000
 -0.025477  0.058359  0.072712      2.000000
  0.000111  0.087539  0.087845      2.000000
  0.025700  0.087539  0.102979      2.000000
  0.051288  0.087539  0.118113      2.000000
  0.076877  0.087539  0.133246      2.000000
 -0.076654  0.087540  0.042444      2.000000
 -0.051066  0.087540  0.057578      2.000000
 -0.025477  0.087540  0.072711      2.000000
  0.000111 -0.087542  0.087848      2.000000
  0.025700 -0.087542  0.102982      2.000000
  0.051288 -0.087542  0.118115      2.000000
  0.076877 -0.087543  0.133249      2.000000
 -0.076654 -0.087541  0.042446      2.000000
 -0.051066 -0.087542  0.057580      2.000000
 -0.025477 -0.087542  0.072714      2.000000
  0.000111 -0.058362  0.087847      2.000000
  0.025700 -0.058362  0.102981      2.000000
  0.051288 -0.058362  0.118115      2.000000
  0.076877 -0.058362  0.133249      2.000000
 -0.076654 -0.058361  0.042446      2.000000
 -0.051066 -0.058361  0.057580      2.000000
 -0.025477 -0.058362  0.072714      2.000000
  0.000111 -0.029182  0.087847      2.000000
  0.025700 -0.029182  0.102981      2.000000
  0.051288 -0.029182  0.118115      2.000000
  0.076877 -0.029182  0.133248      2.000000
 -0.076654 -0.029181  0.042446      2.000000
 -0.051066 -0.029181  0.057579      2.000000
 -0.025477 -0.029181  0.072713      2.000000
 


--------------------------------------------------------------------------------------------------------




 Dimension of arrays:
   k-points           NKPTS =    172   k-points in BZ     NKDIM =    172   number of bands    NBANDS=     56
   number of dos      NEDOS =    301   number of ions     NIONS =     12
   non local maximal  LDIM  =      6   non local SUM 2l+1 LMDIM =     18
   total plane-waves  NPLWV =  38880
   max r-space proj   IRMAX =   4686   max aug-charges    IRDMAX=  18904
   dimension x,y,z NGX =    36 NGY =   30 NGZ =   36
   dimension x,y,z NGXF=    72 NGYF=   60 NGZF=   72
   support grid    NGXF=    72 NGYF=   60 NGZF=   72
   ions per type =               4   8
 NGX,Y,Z   is equivalent  to a cutoff of  10.71, 10.19, 10.55 a.u.
 NGXF,Y,Z  is equivalent  to a cutoff of  21.42, 20.37, 21.10 a.u.


 I would recommend the setting:
   dimension x,y,z NGX =    33 NGY =   29 NGZ =   34
 SYSTEM =  unknown system                          
 POSCAR =  Mo  O                                   

 Startparameter for this run:
   NWRITE =      2    write-flag & timer
   PREC   = normal    normal or accurate (medium, high low for compatibility)
   ISTART =      0    job   : 0-new  1-cont  2-samecut
   ICHARG =      2    charge: 1-file 2-atom 10-const
   ISPIN  =      2    spin polarized calculation?
   LNONCOLLINEAR =      F non collinear calculations
   LSORBIT =      F    spin-orbit coupling
   INIWAV =      1    electr: 0-lowe 1-rand  2-diag
   LASPH  =      F    aspherical Exc in radial PAW
   METAGGA=      F    non-selfconsistent MetaGGA calc.

 Electronic Relaxation 1
   ENCUT  =  600.0 eV  44.10 Ry    6.64 a.u.  11.16  9.78 11.33*2*pi/ulx,y,z
   ENINI  =  600.0     initial cutoff
   ENAUG  =  605.4 eV  augmentation charge cutoff
   NELM   =    500;   NELMIN=  2; NELMDL=  0     # of ELM steps 
   EDIFF  = 0.1E-05   stopping-criterion for ELM
   LREAL  =      T    real-space projection
   NLSPLINE    = F    spline interpolate recip. space projectors
   LCOMPAT=      F    compatible to vasp.4.4
   GGA_COMPAT  = T    GGA compatible to vasp.4.4-vasp.4.6
   LMAXPAW     = -100 max onsite density
   LMAXMIX     =    2 max onsite mixed and CHGCAR
   VOSKOWN=      0    Vosko Wilk Nusair interpolation
   ROPT   =   -0.00050  -0.00050
 Ionic relaxation
   EDIFFG = -.1E-01   stopping-criterion for IOM
   NSW    =    500    number of steps for IOM
   NBLOCK =      1;   KBLOCK =    500    inner block; outer block 
   IBRION =      2    ionic relax: 0-MD 1-quasi-New 2-CG
   NFREE  =      1    steps in history (QN), initial steepest desc. (CG)
   ISIF   =      3    stress and relaxation
   IWAVPR =     11    prediction:  0-non 1-charg 2-wave 3-comb
   ISYM   =      2    0-nonsym 1-usesym 2-fastsym
   LCORR  =      T    Harris-Foulkes like correction to forces

   POTIM  = 0.5000    time-step for ionic-motion
   TEIN   =    0.0    initial temperature
   TEBEG  =    0.0;   TEEND  =   0.0 temperature during run
   SMASS  =  -3.00    Nose mass-parameter (am)
   estimated Nose-frequenzy (Omega)   =  0.10E-29 period in steps =****** mass=  -0.713E-27a.u.
   SCALEE = 1.0000    scale energy and forces
   NPACO  =    256;   APACO  = 16.0  distance and # of slots for P.C.
   PSTRESS=    0.0 pullay stress

  Mass of Ions in am
   POMASS =  95.94 16.00
  Ionic Valenz
   ZVAL   =   6.00  6.00
  Atomic Wigner-Seitz radii
   RWIGS  =  -1.00 -1.00
  virtual crystal weights 
   VCA    =   1.00  1.00
   NELECT =      72.0000    total number of electrons
   NUPDOWN=      -1.0000    fix difference up-down

 DOS related values:
   EMIN   =  10.00;   EMAX   =-10.00  energy-range for DOS
   EFERMI =   0.00
   ISMEAR =     0;   SIGMA  =   0.03  broadening in eV -4-tet -1-fermi 0-gaus

 Electronic relaxation 2 (details)
   IALGO  =     48    algorithm
   LDIAG  =      T    sub-space diagonalisation (order eigenvalues)
   LSUBROT=      F    optimize rotation matrix (better conditioning)
   TURBO    =      0    0=normal 1=particle mesh
   IRESTART =      0    0=no restart 2=restart with 2 vectors
   NREBOOT  =      0    no. of reboots
   NMIN     =      0    reboot dimension
   EREF     =   0.00    reference energy to select bands
   IMIX   =      4    mixing-type and parameters
     AMIX     =   0.40;   BMIX     =  1.00
     AMIX_MAG =   1.60;   BMIX_MAG =  1.00
     AMIN     =   0.10
     WC   =   100.;   INIMIX=   1;  MIXPRE=   1;  MAXMIX= -45

 Intra band minimization:
   WEIMIN = 0.0010     energy-eigenvalue tresh-hold
   EBREAK =  0.45E-08  absolut break condition
   DEPER  =   0.30     relativ break condition  

   TIME   =   0.40     timestep for ELM

  volume/ion in A,a.u.               =      11.12        75.04
  Fermi-wavevector in a.u.,A,eV,Ry     =   1.332767  2.518564 24.167576  1.776267
  Thomas-Fermi vector in A             =   2.461676
 
 Write flags
   LWAVE  =      F    write WAVECAR
   LCHARG =      F    write CHGCAR
   LVTOT  =      F    write LOCPOT, total local potential
   LVHAR  =      F    write LOCPOT, Hartree potential only
   LELF   =      F    write electronic localiz. function (ELF)
   LORBIT =      0    0 simple, 1 ext, 2 COOP (PROOUT)


 Dipole corrections
   LMONO  =      F    monopole corrections only (constant potential shift)
   LDIPOL =      F    correct potential (dipole corrections)
   IDIPOL =      0    1-x, 2-y, 3-z, 4-all directions 
   EPSILON=  1.0000000 bulk dielectric constant

 Exchange correlation treatment:
   GGA     =    PE    GGA type
   LEXCH   =     8    internal setting for exchange type
   VOSKOWN=      0    Vosko Wilk Nusair interpolation
   LHFCALC =     F    Hartree Fock is set to
   LHFONE  =     F    Hartree Fock one center treatment
   AEXX    =    0.0000 exact exchange contribution

 Linear response parameters
   LEPSILON=     F    determine dielectric tensor
   LRPA    =     F    only Hartree local field effects (RPA)
   LNABLA  =     F    use nabla operator in PAW spheres
   LVEL    =     F    velocity operator in full k-point grid
   LINTERFAST=   F  fast interpolation
   KINTER  =     0    interpolate to denser k-point grid
   CSHIFT  =0.1000    complex shift for real part using Kramers Kronig
   OMEGAMAX=  -1.0    maximum frequency
   DEG_THRESHOLD= 0.2000000E-02 threshold for treating states as degnerate
   RTIME   =    0.100 relaxation time in fs

 Orbital magnetization related:
   ORBITALMAG=     F  switch on orbital magnetization
   LCHIMAG   =     F  perturbation theory with respect to B field
   DQ        =  0.001000  dq finite difference perturbation B field



--------------------------------------------------------------------------------------------------------


 conjugate gradient relaxation of ions
 charge density and potential will be updated during run
 spin polarized calculation
 RMM-DIIS sequential band-by-band
 perform sub-space diagonalisation
    before iterative eigenvector-optimisation
 modified Broyden-mixing scheme, WC =      100.0
 initial mixing is a Kerker type mixing with AMIX =  0.4000 and BMIX =      1.0000
 Hartree-type preconditioning will be used
 using additional bands           20
 real space projection scheme for non local part
 use partial core corrections
 calculate Harris-corrections to forces 
   (improved forces if not selfconsistent)
 use gradient corrections 
 use of overlap-Matrix (Vanderbilt PP)
 Gauss-broadening in eV      SIGMA  =   0.03


--------------------------------------------------------------------------------------------------------


  energy-cutoff  :      600.00
  volume of cell :      133.44
      direct lattice vectors                 reciprocal lattice vectors
     5.587050926 -0.000011174 -0.007075527     0.179119462 -0.000001271  0.105936501
    -0.000008949  4.895683084  0.000073869     0.000000405  0.204261588 -0.000003150
    -2.887533662  0.000081003  4.882297166     0.000259584 -0.000003092  0.204975142

  length of vectors
     5.587055406  4.895683085  5.672272585     0.208101715  0.204261588  0.204975307


 
 k-points in units of 2pi/SCALE and weight: KPOINTS created by Atomic Simulation Env
   0.00000000  0.00000000  0.00000000       0.003
   0.02558849 -0.00000018  0.01513379       0.006
   0.05117699 -0.00000036  0.03026757       0.006
   0.07676548 -0.00000054  0.04540136       0.006
   0.00000006  0.02918023 -0.00000045       0.006
   0.02558855  0.02918005  0.01513334       0.006
   0.05117705  0.02917986  0.03026712       0.006
   0.07676554  0.02917968  0.04540091       0.006
  -0.07676543  0.02918077 -0.04540181       0.006
  -0.05117693  0.02918059 -0.03026802       0.006
  -0.02558844  0.02918041 -0.01513424       0.006
   0.00000012  0.05836045 -0.00000090       0.006
   0.02558861  0.05836027  0.01513289       0.006
   0.05117710  0.05836009  0.03026667       0.006
   0.07676560  0.05835991  0.04540046       0.006
  -0.07676537  0.05836100 -0.04540226       0.006
  -0.05117687  0.05836082 -0.03026847       0.006
  -0.02558838  0.05836064 -0.01513469       0.006
   0.00000017  0.08754068 -0.00000135       0.006
   0.02558867  0.08754050  0.01513244       0.006
   0.05117716  0.08754032  0.03026622       0.006
   0.07676566  0.08754014  0.04540001       0.006
  -0.07676531  0.08754123 -0.04540271       0.006
  -0.05117682  0.08754104 -0.03026892       0.006
  -0.02558832  0.08754086 -0.01513514       0.006
   0.00003708 -0.00000044  0.02928216       0.006
   0.02562558 -0.00000062  0.04441595       0.006
   0.05121407 -0.00000080  0.05954973       0.006
   0.07680257 -0.00000099  0.07468352       0.006
  -0.07672840  0.00000010 -0.01611919       0.006
  -0.05113991 -0.00000008 -0.00098541       0.006
  -0.02555141 -0.00000026  0.01414838       0.006
   0.00003714  0.02917979  0.02928171       0.006
   0.02562564  0.02917960  0.04441550       0.006
   0.05121413  0.02917942  0.05954928       0.006
   0.07680262  0.02917924  0.07468307       0.006
  -0.07672834  0.02918033 -0.01611964       0.006
  -0.05113985  0.02918015 -0.00098586       0.006
  -0.02555135  0.02917997  0.01414793       0.006
   0.00003720  0.05836001  0.02928126       0.006
   0.02562569  0.05835983  0.04441505       0.006
   0.05121419  0.05835965  0.05954883       0.006
   0.07680268  0.05835947  0.07468262       0.006
  -0.07672828  0.05836056 -0.01612009       0.006
  -0.05113979  0.05836038 -0.00098631       0.006
  -0.02555130  0.05836019  0.01414748       0.006
   0.00003726  0.08754024  0.02928081       0.006
   0.02562575  0.08754006  0.04441460       0.006
   0.05121425  0.08753988  0.05954838       0.006
   0.07680274  0.08753969  0.07468217       0.006
  -0.07672823  0.08754078 -0.01612054       0.006
  -0.05113973  0.08754060 -0.00098676       0.006
  -0.02555124  0.08754042  0.01414703       0.006
   0.00003691 -0.08754112  0.02928351       0.006
   0.02562540 -0.08754130  0.04441730       0.006
   0.05121390 -0.08754149  0.05955108       0.006
   0.07680239 -0.08754167  0.07468487       0.006
  -0.07672857 -0.08754058 -0.01611784       0.006
  -0.05114008 -0.08754076 -0.00098406       0.006
  -0.02555158 -0.08754094  0.01414973       0.006
   0.00003697 -0.05836090  0.02928306       0.006
   0.02562546 -0.05836108  0.04441685       0.006
   0.05121396 -0.05836126  0.05955063       0.006
   0.07680245 -0.05836144  0.07468442       0.006
  -0.07672852 -0.05836035 -0.01611829       0.006
  -0.05114002 -0.05836053 -0.00098451       0.006
  -0.02555153 -0.05836071  0.01414928       0.006
   0.00003703 -0.02918067  0.02928261       0.006
   0.02562552 -0.02918085  0.04441640       0.006
   0.05121401 -0.02918103  0.05955018       0.006
   0.07680251 -0.02918121  0.07468397       0.006
  -0.07672846 -0.02918012 -0.01611874       0.006
  -0.05113996 -0.02918031 -0.00098496       0.006
  -0.02555147 -0.02918049  0.01414883       0.006
   0.00007417 -0.00000088  0.05856433       0.006
   0.02566266 -0.00000107  0.07369811       0.006
   0.05125116 -0.00000125  0.08883190       0.006
   0.07683965 -0.00000143  0.10396568       0.006
  -0.07669132 -0.00000034  0.01316297       0.006
  -0.05110282 -0.00000052  0.02829675       0.006
  -0.02551433 -0.00000070  0.04343054       0.006
   0.00007422  0.02917934  0.05856388       0.006
   0.02566272  0.02917916  0.07369766       0.006
   0.05125121  0.02917898  0.08883145       0.006
   0.07683971  0.02917880  0.10396523       0.006
  -0.07669126  0.02917989  0.01316252       0.006
  -0.05110276  0.02917971  0.02829630       0.006
  -0.02551427  0.02917952  0.04343009       0.006
   0.00007428  0.05835957  0.05856343       0.006
   0.02566278  0.05835939  0.07369721       0.006
   0.05125127  0.05835921  0.08883100       0.006
   0.07683977  0.05835903  0.10396478       0.006
  -0.07669120  0.05836011  0.01316207       0.006
  -0.05110271  0.05835993  0.02829585       0.006
  -0.02551421  0.05835975  0.04342964       0.006
   0.00007434  0.08753980  0.05856298       0.006
   0.02566283  0.08753962  0.07369676       0.006
   0.05125133  0.08753943  0.08883055       0.006
   0.07683982  0.08753925  0.10396433       0.006
  -0.07669114  0.08754034  0.01316162       0.006
  -0.05110265  0.08754016  0.02829540       0.006
  -0.02551415  0.08753998  0.04342919       0.006
   0.00007399 -0.08754156  0.05856568       0.006
   0.02566249 -0.08754175  0.07369946       0.006
   0.05125098 -0.08754193  0.08883325       0.006
   0.07683948 -0.08754211  0.10396703       0.006
  -0.07669149 -0.08754102  0.01316432       0.006
  -0.05110300 -0.08754120  0.02829810       0.006
  -0.02551450 -0.08754138  0.04343189       0.006
   0.00007405 -0.05836134  0.05856523       0.006
   0.02566255 -0.05836152  0.07369901       0.006
   0.05125104 -0.05836170  0.08883280       0.006
   0.07683953 -0.05836188  0.10396658       0.006
  -0.07669143 -0.05836079  0.01316387       0.006
  -0.05110294 -0.05836097  0.02829765       0.006
  -0.02551444 -0.05836116  0.04343144       0.006
   0.00007411 -0.02918111  0.05856478       0.006
   0.02566260 -0.02918129  0.07369856       0.006
   0.05125110 -0.02918147  0.08883235       0.006
   0.07683959 -0.02918166  0.10396613       0.006
  -0.07669137 -0.02918057  0.01316342       0.006
  -0.05110288 -0.02918075  0.02829720       0.006
  -0.02551439 -0.02918093  0.04343099       0.006
   0.00011125 -0.00000133  0.08784649       0.006
   0.02569974 -0.00000151  0.10298028       0.006
   0.05128824 -0.00000169  0.11811406       0.006
   0.07687673 -0.00000187  0.13324785       0.006
  -0.07665423 -0.00000078  0.04244513       0.006
  -0.05106574 -0.00000096  0.05757892       0.006
  -0.02547724 -0.00000114  0.07271270       0.006
   0.00011131  0.02917890  0.08784604       0.006
   0.02569980  0.02917872  0.10297983       0.006
   0.05128830  0.02917854  0.11811361       0.006
   0.07687679  0.02917836  0.13324740       0.006
  -0.07665418  0.02917945  0.04244468       0.006
  -0.05106568  0.02917926  0.05757847       0.006
  -0.02547719  0.02917908  0.07271225       0.006
   0.00011137  0.05835913  0.08784559       0.006
   0.02569986  0.05835895  0.10297938       0.006
   0.05128835  0.05835877  0.11811316       0.006
   0.07687685  0.05835858  0.13324695       0.006
  -0.07665412  0.05835967  0.04244423       0.006
  -0.05106562  0.05835949  0.05757802       0.006
  -0.02547713  0.05835931  0.07271180       0.006
   0.00011142  0.08753936  0.08784514       0.006
   0.02569992  0.08753917  0.10297893       0.006
   0.05128841  0.08753899  0.11811271       0.006
   0.07687691  0.08753881  0.13324650       0.006
  -0.07665406  0.08753990  0.04244378       0.006
  -0.05106557  0.08753972  0.05757757       0.006
  -0.02547707  0.08753954  0.07271135       0.006
   0.00011108 -0.08754201  0.08784784       0.006
   0.02569957 -0.08754219  0.10298163       0.006
   0.05128807 -0.08754237  0.11811541       0.006
   0.07687656 -0.08754255  0.13324920       0.006
  -0.07665441 -0.08754146  0.04244648       0.006
  -0.05106591 -0.08754164  0.05758027       0.006
  -0.02547742 -0.08754182  0.07271405       0.006
   0.00011113 -0.05836178  0.08784739       0.006
   0.02569963 -0.05836196  0.10298118       0.006
   0.05128812 -0.05836214  0.11811496       0.006
   0.07687662 -0.05836232  0.13324875       0.006
  -0.07665435 -0.05836123  0.04244603       0.006
  -0.05106585 -0.05836142  0.05757982       0.006
  -0.02547736 -0.05836160  0.07271360       0.006
   0.00011119 -0.02918155  0.08784694       0.006
   0.02569969 -0.02918173  0.10298073       0.006
   0.05128818 -0.02918192  0.11811451       0.006
   0.07687668 -0.02918210  0.13324830       0.006
  -0.07665429 -0.02918101  0.04244558       0.006
  -0.05106580 -0.02918119  0.05757937       0.006
  -0.02547730 -0.02918137  0.07271315       0.006
 
 k-points in reciprocal lattice and weights: KPOINTS created by Atomic Simulation Env
   0.00000000  0.00000000  0.00000000       0.003
   0.14285714 -0.00000000  0.00000000       0.006
   0.28571429 -0.00000000 -0.00000000       0.006
   0.42857143 -0.00000000  0.00000000       0.006
  -0.00000000  0.14285714  0.00000000       0.006
   0.14285714  0.14285714  0.00000000       0.006
   0.28571429  0.14285714  0.00000000       0.006
   0.42857143  0.14285714  0.00000000       0.006
  -0.42857143  0.14285714  0.00000000       0.006
  -0.28571429  0.14285714  0.00000000       0.006
  -0.14285714  0.14285714  0.00000000       0.006
  -0.00000000  0.28571429  0.00000000       0.006
   0.14285714  0.28571429 -0.00000000       0.006
   0.28571429  0.28571429  0.00000000       0.006
   0.42857143  0.28571429  0.00000000       0.006
  -0.42857143  0.28571429  0.00000000       0.006
  -0.28571429  0.28571429  0.00000000       0.006
  -0.14285714  0.28571429  0.00000000       0.006
  -0.00000000  0.42857143  0.00000000       0.006
   0.14285714  0.42857143  0.00000000       0.006
   0.28571429  0.42857143  0.00000000       0.006
   0.42857143  0.42857143  0.00000000       0.006
  -0.42857143  0.42857143  0.00000000       0.006
  -0.28571429  0.42857143  0.00000000       0.006
  -0.14285714  0.42857143  0.00000000       0.006
  -0.00000000 -0.00000000  0.14285714       0.006
   0.14285714 -0.00000000  0.14285714       0.006
   0.28571429  0.00000000  0.14285714       0.006
   0.42857143 -0.00000000  0.14285714       0.006
  -0.42857143  0.00000000  0.14285714       0.006
  -0.28571429  0.00000000  0.14285714       0.006
  -0.14285714 -0.00000000  0.14285714       0.006
  -0.00000000  0.14285714  0.14285714       0.006
   0.14285714  0.14285714  0.14285714       0.006
   0.28571429  0.14285714  0.14285714       0.006
   0.42857143  0.14285714  0.14285714       0.006
  -0.42857143  0.14285714  0.14285714       0.006
  -0.28571429  0.14285714  0.14285714       0.006
  -0.14285714  0.14285714  0.14285714       0.006
  -0.00000000  0.28571429  0.14285714       0.006
   0.14285714  0.28571429  0.14285714       0.006
   0.28571429  0.28571429  0.14285714       0.006
   0.42857143  0.28571429  0.14285714       0.006
  -0.42857143  0.28571429  0.14285714       0.006
  -0.28571429  0.28571429  0.14285714       0.006
  -0.14285714  0.28571429  0.14285714       0.006
   0.00000000  0.42857143  0.14285714       0.006
   0.14285714  0.42857143  0.14285714       0.006
   0.28571429  0.42857143  0.14285714       0.006
   0.42857143  0.42857143  0.14285714       0.006
  -0.42857143  0.42857143  0.14285714       0.006
  -0.28571429  0.42857143  0.14285714       0.006
  -0.14285714  0.42857143  0.14285714       0.006
   0.00000000 -0.42857143  0.14285714       0.006
   0.14285714 -0.42857143  0.14285714       0.006
   0.28571429 -0.42857143  0.14285714       0.006
   0.42857143 -0.42857143  0.14285714       0.006
  -0.42857143 -0.42857143  0.14285714       0.006
  -0.28571429 -0.42857143  0.14285714       0.006
  -0.14285714 -0.42857143  0.14285714       0.006
   0.00000000 -0.28571429  0.14285714       0.006
   0.14285714 -0.28571429  0.14285714       0.006
   0.28571429 -0.28571429  0.14285714       0.006
   0.42857143 -0.28571429  0.14285714       0.006
  -0.42857143 -0.28571429  0.14285714       0.006
  -0.28571429 -0.28571429  0.14285714       0.006
  -0.14285714 -0.28571429  0.14285714       0.006
  -0.00000000 -0.14285714  0.14285714       0.006
   0.14285714 -0.14285714  0.14285714       0.006
   0.28571429 -0.14285714  0.14285714       0.006
   0.42857143 -0.14285714  0.14285714       0.006
  -0.42857143 -0.14285714  0.14285714       0.006
  -0.28571429 -0.14285714  0.14285714       0.006
  -0.14285714 -0.14285714  0.14285714       0.006
   0.00000000 -0.00000000  0.28571429       0.006
   0.14285714 -0.00000000  0.28571429       0.006
   0.28571429 -0.00000000  0.28571429       0.006
   0.42857143 -0.00000000  0.28571429       0.006
  -0.42857143 -0.00000000  0.28571429       0.006
  -0.28571429 -0.00000000  0.28571429       0.006
  -0.14285714 -0.00000000  0.28571429       0.006
   0.00000000  0.14285714  0.28571429       0.006
   0.14285714  0.14285714  0.28571429       0.006
   0.28571429  0.14285714  0.28571429       0.006
   0.42857143  0.14285714  0.28571429       0.006
  -0.42857143  0.14285714  0.28571429       0.006
  -0.28571429  0.14285714  0.28571429       0.006
  -0.14285714  0.14285714  0.28571429       0.006
   0.00000000  0.28571429  0.28571429       0.006
   0.14285714  0.28571429  0.28571429       0.006
   0.28571429  0.28571429  0.28571429       0.006
   0.42857143  0.28571429  0.28571429       0.006
  -0.42857143  0.28571429  0.28571429       0.006
  -0.28571429  0.28571429  0.28571429       0.006
  -0.14285714  0.28571429  0.28571429       0.006
  -0.00000000  0.42857143  0.28571429       0.006
   0.14285714  0.42857143  0.28571429       0.006
   0.28571429  0.42857143  0.28571429       0.006
   0.42857143  0.42857143  0.28571429       0.006
  -0.42857143  0.42857143  0.28571429       0.006
  -0.28571429  0.42857143  0.28571429       0.006
  -0.14285714  0.42857143  0.28571429       0.006
   0.00000000 -0.42857143  0.28571429       0.006
   0.14285714 -0.42857143  0.28571429       0.006
   0.28571429 -0.42857143  0.28571429       0.006
   0.42857143 -0.42857143  0.28571429       0.006
  -0.42857143 -0.42857143  0.28571429       0.006
  -0.28571429 -0.42857143  0.28571429       0.006
  -0.14285714 -0.42857143  0.28571429       0.006
  -0.00000000 -0.28571429  0.28571429       0.006
   0.14285714 -0.28571429  0.28571429       0.006
   0.28571429 -0.28571429  0.28571429       0.006
   0.42857143 -0.28571429  0.28571429       0.006
  -0.42857143 -0.28571429  0.28571429       0.006
  -0.28571429 -0.28571429  0.28571429       0.006
  -0.14285714 -0.28571429  0.28571429       0.006
  -0.00000000 -0.14285714  0.28571429       0.006
   0.14285714 -0.14285714  0.28571429       0.006
   0.28571429 -0.14285714  0.28571429       0.006
   0.42857143 -0.14285714  0.28571429       0.006
  -0.42857143 -0.14285714  0.28571429       0.006
  -0.28571429 -0.14285714  0.28571429       0.006
  -0.14285714 -0.14285714  0.28571429       0.006
  -0.00000000 -0.00000000  0.42857143       0.006
   0.14285714 -0.00000000  0.42857143       0.006
   0.28571429 -0.00000000  0.42857143       0.006
   0.42857143 -0.00000000  0.42857143       0.006
  -0.42857143  0.00000000  0.42857143       0.006
  -0.28571429 -0.00000000  0.42857143       0.006
  -0.14285714 -0.00000000  0.42857143       0.006
  -0.00000000  0.14285714  0.42857143       0.006
   0.14285714  0.14285714  0.42857143       0.006
   0.28571429  0.14285714  0.42857143       0.006
   0.42857143  0.14285714  0.42857143       0.006
  -0.42857143  0.14285714  0.42857143       0.006
  -0.28571429  0.14285714  0.42857143       0.006
  -0.14285714  0.14285714  0.42857143       0.006
  -0.00000000  0.28571429  0.42857143       0.006
   0.14285714  0.28571429  0.42857143       0.006
   0.28571429  0.28571429  0.42857143       0.006
   0.42857143  0.28571429  0.42857143       0.006
  -0.42857143  0.28571429  0.42857143       0.006
  -0.28571429  0.28571429  0.42857143       0.006
  -0.14285714  0.28571429  0.42857143       0.006
   0.00000000  0.42857143  0.42857143       0.006
   0.14285714  0.42857143  0.42857143       0.006
   0.28571429  0.42857143  0.42857143       0.006
   0.42857143  0.42857143  0.42857143       0.006
  -0.42857143  0.42857143  0.42857143       0.006
  -0.28571429  0.42857143  0.42857143       0.006
  -0.14285714  0.42857143  0.42857143       0.006
  -0.00000000 -0.42857143  0.42857143       0.006
   0.14285714 -0.42857143  0.42857143       0.006
   0.28571429 -0.42857143  0.42857143       0.006
   0.42857143 -0.42857143  0.42857143       0.006
  -0.42857143 -0.42857143  0.42857143       0.006
  -0.28571429 -0.42857143  0.42857143       0.006
  -0.14285714 -0.42857143  0.42857143       0.006
  -0.00000000 -0.28571429  0.42857143       0.006
   0.14285714 -0.28571429  0.42857143       0.006
   0.28571429 -0.28571429  0.42857143       0.006
   0.42857143 -0.28571429  0.42857143       0.006
  -0.42857143 -0.28571429  0.42857143       0.006
  -0.28571429 -0.28571429  0.42857143       0.006
  -0.14285714 -0.28571429  0.42857143       0.006
  -0.00000000 -0.14285714  0.42857143       0.006
   0.14285714 -0.14285714  0.42857143       0.006
   0.28571429 -0.14285714  0.42857143       0.006
   0.42857143 -0.14285714  0.42857143       0.006
  -0.42857143 -0.14285714  0.42857143       0.006
  -0.28571429 -0.14285714  0.42857143       0.006
  -0.14285714 -0.14285714  0.42857143       0.006
 
 position of ions in fractional coordinates (direct lattice) 
   0.26935240  0.49199527  0.48299585
   0.73064891  0.99200483  0.01700086
   0.73064760  0.50800473  0.51700415
   0.26935109  0.00799517  0.98299914
   0.10962160  0.30328358  0.70207981
   0.89038416  0.80328374  0.79792113
   0.89037840  0.69671642  0.29792019
   0.10961584  0.19671626  0.20207887
   0.38743993  0.78282503  0.76473070
   0.61255502  0.28283044  0.73526501
   0.61256007  0.21717497  0.23526930
   0.38744498  0.71716956  0.26473499
 
 position of ions in cartesian coordinates  (Angst):
   0.11021442  2.40868901  2.35625979
   4.03307321  4.85653447  0.07790682
   2.58929389  2.48706390  2.51903571
  -1.33356489  0.03921845  4.79738869
  -1.41482034  1.48483595  3.42700905
   2.67059034  3.93267730  3.88944747
   4.11432865  3.41091696  1.44828646
   0.02891798  0.96307561  0.98584803
  -0.04354604  3.83252087  3.73095900
   1.29927110  1.38470090  3.58546901
   2.74305436  1.06323204  1.14433651
   1.40023722  3.51105201  1.28982650
 


--------------------------------------------------------------------------------------------------------


 k-point  1 :   0.0000 0.0000 0.0000  plane waves:    4463
 k-point  2 :   0.1429-0.0000 0.0000  plane waves:    4452
 k-point  3 :   0.2857-0.0000-0.0000  plane waves:    4437
 k-point  4 :   0.4286-0.0000 0.0000  plane waves:    4462
 k-point  5 :  -0.0000 0.1429 0.0000  plane waves:    4443
 k-point  6 :   0.1429 0.1429 0.0000  plane waves:    4450
 k-point  7 :   0.2857 0.1429 0.0000  plane waves:    4453
 k-point  8 :   0.4286 0.1429 0.0000  plane waves:    4465
 k-point  9 :  -0.4286 0.1429 0.0000  plane waves:    4465
 k-point 10 :  -0.2857 0.1429 0.0000  plane waves:    4453
 k-point 11 :  -0.1429 0.1429 0.0000  plane waves:    4450
 k-point 12 :  -0.0000 0.2857 0.0000  plane waves:    4456
 k-point 13 :   0.1429 0.2857-0.0000  plane waves:    4449
 k-point 14 :   0.2857 0.2857 0.0000  plane waves:    4471
 k-point 15 :   0.4286 0.2857 0.0000  plane waves:    4456
 k-point 16 :  -0.4286 0.2857 0.0000  plane waves:    4456
 k-point 17 :  -0.2857 0.2857 0.0000  plane waves:    4471
 k-point 18 :  -0.1429 0.2857 0.0000  plane waves:    4449
 k-point 19 :  -0.0000 0.4286 0.0000  plane waves:    4472
 k-point 20 :   0.1429 0.4286 0.0000  plane waves:    4463
 k-point 21 :   0.2857 0.4286 0.0000  plane waves:    4466
 k-point 22 :   0.4286 0.4286 0.0000  plane waves:    4455
 k-point 23 :  -0.4286 0.4286 0.0000  plane waves:    4454
 k-point 24 :  -0.2857 0.4286 0.0000  plane waves:    4466
 k-point 25 :  -0.1429 0.4286 0.0000  plane waves:    4463
 k-point 26 :  -0.0000-0.0000 0.1429  plane waves:    4453
 k-point 27 :   0.1429-0.0000 0.1429  plane waves:    4449
 k-point 28 :   0.2857 0.0000 0.1429  plane waves:    4459
 k-point 29 :   0.4286-0.0000 0.1429  plane waves:    4469
 k-point 30 :  -0.4286 0.0000 0.1429  plane waves:    4469
 k-point 31 :  -0.2857 0.0000 0.1429  plane waves:    4455
 k-point 32 :  -0.1429-0.0000 0.1429  plane waves:    4453
 k-point 33 :  -0.0000 0.1429 0.1429  plane waves:    4440
 k-point 34 :   0.1429 0.1429 0.1429  plane waves:    4441
 k-point 35 :   0.2857 0.1429 0.1429  plane waves:    4455
 k-point 36 :   0.4286 0.1429 0.1429  plane waves:    4460
 k-point 37 :  -0.4286 0.1429 0.1429  plane waves:    4455
 k-point 38 :  -0.2857 0.1429 0.1429  plane waves:    4443
 k-point 39 :  -0.1429 0.1429 0.1429  plane waves:    4443
 k-point 40 :  -0.0000 0.2857 0.1429  plane waves:    4450
 k-point 41 :   0.1429 0.2857 0.1429  plane waves:    4452
 k-point 42 :   0.2857 0.2857 0.1429  plane waves:    4461
 k-point 43 :   0.4286 0.2857 0.1429  plane waves:    4458
 k-point 44 :  -0.4286 0.2857 0.1429  plane waves:    4454
 k-point 45 :  -0.2857 0.2857 0.1429  plane waves:    4452
 k-point 46 :  -0.1429 0.2857 0.1429  plane waves:    4448
 k-point 47 :   0.0000 0.4286 0.1429  plane waves:    4468
 k-point 48 :   0.1429 0.4286 0.1429  plane waves:    4462
 k-point 49 :   0.2857 0.4286 0.1429  plane waves:    4463
 k-point 50 :   0.4286 0.4286 0.1429  plane waves:    4449
 k-point 51 :  -0.4286 0.4286 0.1429  plane waves:    4458
 k-point 52 :  -0.2857 0.4286 0.1429  plane waves:    4465
 k-point 53 :  -0.1429 0.4286 0.1429  plane waves:    4465
 k-point 54 :   0.0000-0.4286 0.1429  plane waves:    4469
 k-point 55 :   0.1429-0.4286 0.1429  plane waves:    4462
 k-point 56 :   0.2857-0.4286 0.1429  plane waves:    4463
 k-point 57 :   0.4286-0.4286 0.1429  plane waves:    4449
 k-point 58 :  -0.4286-0.4286 0.1429  plane waves:    4459
 k-point 59 :  -0.2857-0.4286 0.1429  plane waves:    4465
 k-point 60 :  -0.1429-0.4286 0.1429  plane waves:    4465
 k-point 61 :   0.0000-0.2857 0.1429  plane waves:    4450
 k-point 62 :   0.1429-0.2857 0.1429  plane waves:    4452
 k-point 63 :   0.2857-0.2857 0.1429  plane waves:    4461
 k-point 64 :   0.4286-0.2857 0.1429  plane waves:    4458
 k-point 65 :  -0.4286-0.2857 0.1429  plane waves:    4454
 k-point 66 :  -0.2857-0.2857 0.1429  plane waves:    4452
 k-point 67 :  -0.1429-0.2857 0.1429  plane waves:    4447
 k-point 68 :  -0.0000-0.1429 0.1429  plane waves:    4440
 k-point 69 :   0.1429-0.1429 0.1429  plane waves:    4441
 k-point 70 :   0.2857-0.1429 0.1429  plane waves:    4455
 k-point 71 :   0.4286-0.1429 0.1429  plane waves:    4460
 k-point 72 :  -0.4286-0.1429 0.1429  plane waves:    4455
 k-point 73 :  -0.2857-0.1429 0.1429  plane waves:    4443
 k-point 74 :  -0.1429-0.1429 0.1429  plane waves:    4443
 k-point 75 :   0.0000-0.0000 0.2857  plane waves:    4462
 k-point 76 :   0.1429-0.0000 0.2857  plane waves:    4455
 k-point 77 :   0.2857-0.0000 0.2857  plane waves:    4462
 k-point 78 :   0.4286-0.0000 0.2857  plane waves:    4467
 k-point 79 :  -0.4286-0.0000 0.2857  plane waves:    4452
 k-point 80 :  -0.2857-0.0000 0.2857  plane waves:    4459
 k-point 81 :  -0.1429-0.0000 0.2857  plane waves:    4445
 k-point 82 :   0.0000 0.1429 0.2857  plane waves:    4445
 k-point 83 :   0.1429 0.1429 0.2857  plane waves:    4455
 k-point 84 :   0.2857 0.1429 0.2857  plane waves:    4452
 k-point 85 :   0.4286 0.1429 0.2857  plane waves:    4458
 k-point 86 :  -0.4286 0.1429 0.2857  plane waves:    4453
 k-point 87 :  -0.2857 0.1429 0.2857  plane waves:    4445
 k-point 88 :  -0.1429 0.1429 0.2857  plane waves:    4449
 k-point 89 :   0.0000 0.2857 0.2857  plane waves:    4452
 k-point 90 :   0.1429 0.2857 0.2857  plane waves:    4453
 k-point 91 :   0.2857 0.2857 0.2857  plane waves:    4453
 k-point 92 :   0.4286 0.2857 0.2857  plane waves:    4450
 k-point 93 :  -0.4286 0.2857 0.2857  plane waves:    4449
 k-point 94 :  -0.2857 0.2857 0.2857  plane waves:    4442
 k-point 95 :  -0.1429 0.2857 0.2857  plane waves:    4441
 k-point 96 :  -0.0000 0.4286 0.2857  plane waves:    4458
 k-point 97 :   0.1429 0.4286 0.2857  plane waves:    4460
 k-point 98 :   0.2857 0.4286 0.2857  plane waves:    4454
 k-point 99 :   0.4286 0.4286 0.2857  plane waves:    4454
 k-point ** :  -0.4286 0.4286 0.2857  plane waves:    4457
 k-point ** :  -0.2857 0.4286 0.2857  plane waves:    4451
 k-point ** :  -0.1429 0.4286 0.2857  plane waves:    4444
 k-point ** :   0.0000-0.4286 0.2857  plane waves:    4458
 k-point ** :   0.1429-0.4286 0.2857  plane waves:    4460
 k-point ** :   0.2857-0.4286 0.2857  plane waves:    4454
 k-point ** :   0.4286-0.4286 0.2857  plane waves:    4454
 k-point ** :  -0.4286-0.4286 0.2857  plane waves:    4457
 k-point ** :  -0.2857-0.4286 0.2857  plane waves:    4451
 k-point ** :  -0.1429-0.4286 0.2857  plane waves:    4444
 k-point ** :  -0.0000-0.2857 0.2857  plane waves:    4452
 k-point ** :   0.1429-0.2857 0.2857  plane waves:    4453
 k-point ** :   0.2857-0.2857 0.2857  plane waves:    4453
 k-point ** :   0.4286-0.2857 0.2857  plane waves:    4450
 k-point ** :  -0.4286-0.2857 0.2857  plane waves:    4449
 k-point ** :  -0.2857-0.2857 0.2857  plane waves:    4442
 k-point ** :  -0.1429-0.2857 0.2857  plane waves:    4441
 k-point ** :  -0.0000-0.1429 0.2857  plane waves:    4445
 k-point ** :   0.1429-0.1429 0.2857  plane waves:    4455
 k-point ** :   0.2857-0.1429 0.2857  plane waves:    4453
 k-point ** :   0.4286-0.1429 0.2857  plane waves:    4458
 k-point ** :  -0.4286-0.1429 0.2857  plane waves:    4453
 k-point ** :  -0.2857-0.1429 0.2857  plane waves:    4445
 k-point ** :  -0.1429-0.1429 0.2857  plane waves:    4449
 k-point ** :  -0.0000-0.0000 0.4286  plane waves:    4450
 k-point ** :   0.1429-0.0000 0.4286  plane waves:    4456
 k-point ** :   0.2857-0.0000 0.4286  plane waves:    4467
 k-point ** :   0.4286-0.0000 0.4286  plane waves:    4452
 k-point ** :  -0.4286 0.0000 0.4286  plane waves:    4447
 k-point ** :  -0.2857-0.0000 0.4286  plane waves:    4447
 k-point ** :  -0.1429-0.0000 0.4286  plane waves:    4445
 k-point ** :  -0.0000 0.1429 0.4286  plane waves:    4457
 k-point ** :   0.1429 0.1429 0.4286  plane waves:    4465
 k-point ** :   0.2857 0.1429 0.4286  plane waves:    4455
 k-point ** :   0.4286 0.1429 0.4286  plane waves:    4460
 k-point ** :  -0.4286 0.1429 0.4286  plane waves:    4460
 k-point ** :  -0.2857 0.1429 0.4286  plane waves:    4456
 k-point ** :  -0.1429 0.1429 0.4286  plane waves:    4458
 k-point ** :  -0.0000 0.2857 0.4286  plane waves:    4449
 k-point ** :   0.1429 0.2857 0.4286  plane waves:    4453
 k-point ** :   0.2857 0.2857 0.4286  plane waves:    4463
 k-point ** :   0.4286 0.2857 0.4286  plane waves:    4454
 k-point ** :  -0.4286 0.2857 0.4286  plane waves:    4446
 k-point ** :  -0.2857 0.2857 0.4286  plane waves:    4447
 k-point ** :  -0.1429 0.2857 0.4286  plane waves:    4445
 k-point ** :   0.0000 0.4286 0.4286  plane waves:    4446
 k-point ** :   0.1429 0.4286 0.4286  plane waves:    4449
 k-point ** :   0.2857 0.4286 0.4286  plane waves:    4445
 k-point ** :   0.4286 0.4286 0.4286  plane waves:    4450
 k-point ** :  -0.4286 0.4286 0.4286  plane waves:    4440
 k-point ** :  -0.2857 0.4286 0.4286  plane waves:    4440
 k-point ** :  -0.1429 0.4286 0.4286  plane waves:    4439
 k-point ** :  -0.0000-0.4286 0.4286  plane waves:    4446
 k-point ** :   0.1429-0.4286 0.4286  plane waves:    4450
 k-point ** :   0.2857-0.4286 0.4286  plane waves:    4445
 k-point ** :   0.4286-0.4286 0.4286  plane waves:    4451
 k-point ** :  -0.4286-0.4286 0.4286  plane waves:    4440
 k-point ** :  -0.2857-0.4286 0.4286  plane waves:    4440
 k-point ** :  -0.1429-0.4286 0.4286  plane waves:    4439
 k-point ** :  -0.0000-0.2857 0.4286  plane waves:    4449
 k-point ** :   0.1429-0.2857 0.4286  plane waves:    4454
 k-point ** :   0.2857-0.2857 0.4286  plane waves:    4463
 k-point ** :   0.4286-0.2857 0.4286  plane waves:    4454
 k-point ** :  -0.4286-0.2857 0.4286  plane waves:    4446
 k-point ** :  -0.2857-0.2857 0.4286  plane waves:    4447
 k-point ** :  -0.1429-0.2857 0.4286  plane waves:    4445
 k-point ** :  -0.0000-0.1429 0.4286  plane waves:    4457
 k-point ** :   0.1429-0.1429 0.4286  plane waves:    4465
 k-point ** :   0.2857-0.1429 0.4286  plane waves:    4455
 k-point ** :   0.4286-0.1429 0.4286  plane waves:    4460
 k-point ** :  -0.4286-0.1429 0.4286  plane waves:    4459
 k-point ** :  -0.2857-0.1429 0.4286  plane waves:    4456
 k-point ** :  -0.1429-0.1429 0.4286  plane waves:    4458

 maximum and minimum number of plane-waves per node :       584      532

 maximum number of plane-waves:      4472
 maximum index in each direction: 
   IXMAX=   11   IYMAX=   10   IZMAX=   11
   IXMIN=  -11   IYMIN=  -10   IZMIN=  -11

 WARNING: aliasing errors must be expected set NGX to  46 to avoid them
 WARNING: aliasing errors must be expected set NGY to  42 to avoid them
 WARNING: aliasing errors must be expected set NGZ to  46 to avoid them
 aliasing errors are usually negligible using standard VASP settings
 and one can safely disregard these warnings

 real space projection operators:
  total allocation   :       3374.78 KBytes
  max/ min on nodes  :        470.22        369.75


 parallel 3D FFT for wavefunctions:
    minimum data exchange during FFTs selected (reduces bandwidth)
 parallel 3D FFT for charge:
    minimum data exchange during FFTs selected (reduces bandwidth)


 total amount of memory used by VASP on root node    56901. kBytes
========================================================================

   base      :      30000. kBytes
   nonlr-proj:       1517. kBytes
   fftplans  :        446. kBytes
   grid      :       1143. kBytes
   one-center:         62. kBytes
   wavefun   :      23733. kBytes
 
     INWAV:  cpu time    0.0000: real time    0.0000
 Broyden mixing: mesh for mixing (old mesh)
   NGX = 23   NGY = 19   NGZ = 23
  (NGX  = 72   NGY  = 60   NGZ  = 72)
  gives a total of  10051 points

 initial charge density was supplied:
 charge density of overlapping atoms calculated
 number of electron      72.0000000 magnetization      12.0000000
 keeping initial charge density in first step


--------------------------------------------------------------------------------------------------------


 Maximum index for non-local projection operator          646
 Maximum index for augmentation-charges          459 (set IRDMAX)


--------------------------------------------------------------------------------------------------------


 First call to EWALD:  gamma=   0.347
 Maximum number of real-space cells 3x 3x 3
 Maximum number of reciprocal cells 3x 3x 3

 FEWALD executed in parallel
    FEWALD:  cpu time    0.0013: real time    0.0014


----------------------------------------- Iteration    1(   1)  ---------------------------------------


    POTLOK:  cpu time    0.0119: real time    0.0124
    SETDIJ:  cpu time    0.0048: real time    0.0049
    EDDIAG:  cpu time    2.0232: real time    2.0377
  RMM-DIIS:  cpu time    0.9399: real time    0.9449
    ORTHCH:  cpu time    0.3213: real time    0.3234
       DOS:  cpu time    0.0070: real time    0.0070
    --------------------------------------------
      LOOP:  cpu time    3.3121: real time    3.3349

 eigenvalue-minimisations  : 19264
 total energy-change (2. order) : 0.8802643E+03  (-0.2938319E+04)
 number of electron      72.0000000 magnetization      12.0000000
 augmentation part       72.0000000 magnetization      12.0000000

 Free energy of the ion-electron system (eV)
  ---------------------------------------------------
  alpha Z        PSCENC =       346.87334610
  Ewald energy   TEWEN  =     -3774.24442500
  -Hartree energ DENC   =      -936.97956937
  -exchange      EXHF   =         0.00000000
  -V(xc)+E(xc)   XCENC  =       -21.59088935
  PAW double counting   =      3833.25080917    -3562.94813318
  entropy T*S    EENTRO =        -0.00102334
  eigenvalues    EBANDS =       666.94000118
  atomic energy  EATOM  =      4328.96416383
  Solvation  Ediel_sol  =         0.00000000
  ---------------------------------------------------
  free energy    TOTEN  =       880.26428003 eV

  energy without entropy =      880.26530337  energy(sigma->0) =      880.26479170


--------------------------------------------------------------------------------------------------------




----------------------------------------- Iteration    1(   2)  ---------------------------------------


    EDDIAG:  cpu time    1.9916: real time    2.0042
  RMM-DIIS:  cpu time    0.9309: real time    0.9357
    ORTHCH:  cpu time    0.3218: real time    0.3238
       DOS:  cpu time    0.0068: real time    0.0069
    --------------------------------------------
      LOOP:  cpu time    3.2523: real time    3.2845

 eigenvalue-minimisations  : 19264
 total energy-change (2. order) :-0.7142623E+03  (-0.7103322E+03)
 number of electron      72.0000000 magnetization      12.0000000
 augmentation part       72.0000000 magnetization      12.0000000

 Free energy of the ion-electron system (eV)
  ---------------------------------------------------
  alpha Z        PSCENC =       346.87334610
  Ewald energy   TEWEN  =     -3774.24442500
  -Hartree energ DENC   =      -936.97956937
  -exchange      EXHF   =         0.00000000
  -V(xc)+E(xc)   XCENC  =       -21.59088935
  PAW double counting   =      3833.25080917    -3562.94813318
  entropy T*S    EENTRO =        -0.00141359
  eigenvalues    EBANDS =       -47.32192838
  atomic energy  EATOM  =      4328.96416383
  Solvation  Ediel_sol  =         0.00000000
  ---------------------------------------------------
  free energy    TOTEN  =       166.00196023 eV

  energy without entropy =      166.00337382  energy(sigma->0) =      166.00266702


--------------------------------------------------------------------------------------------------------




----------------------------------------- Iteration    1(   3)  ---------------------------------------


    EDDIAG:  cpu time    1.9988: real time    2.0121
  RMM-DIIS:  cpu time    0.9354: real time    0.9403
    ORTHCH:  cpu time    0.3233: real time    0.3254
       DOS:  cpu time    0.0070: real time    0.0071
    --------------------------------------------
      LOOP:  cpu time    3.2656: real time    3.2993

 eigenvalue-minimisations  : 19264
 total energy-change (2. order) :-0.2081895E+03  (-0.1868150E+03)
 number of electron      72.0000000 magnetization      12.0000000
 augmentation part       72.0000000 magnetization      12.0000000

 Free energy of the ion-electron system (eV)
  ---------------------------------------------------
  alpha Z        PSCENC =       346.87334610
  Ewald energy   TEWEN  =     -3774.24442500
  -Hartree energ DENC   =      -936.97956937
  -exchange      EXHF   =         0.00000000
  -V(xc)+E(xc)   XCENC  =       -21.59088935
  PAW double counting   =      3833.25080917    -3562.94813318
  entropy T*S    EENTRO =        -0.00148943
  eigenvalues    EBANDS =      -255.51133703
  atomic energy  EATOM  =      4328.96416383
  Solvation  Ediel_sol  =         0.00000000
  ---------------------------------------------------
  free energy    TOTEN  =       -42.18752427 eV

  energy without entropy =      -42.18603484  energy(sigma->0) =      -42.18677955


--------------------------------------------------------------------------------------------------------




----------------------------------------- Iteration    1(   4)  ---------------------------------------


    EDDIAG:  cpu time    1.9817: real time    1.9944
  RMM-DIIS:  cpu time    0.9309: real time    0.9361
    ORTHCH:  cpu time    0.3178: real time    0.3197
       DOS:  cpu time    0.0070: real time    0.0070
    --------------------------------------------
      LOOP:  cpu time    3.2384: real time    3.2737

 eigenvalue-minimisations  : 19264
 total energy-change (2. order) :-0.6216089E+02  (-0.4512132E+02)
 number of electron      72.0000000 magnetization      12.0000000
 augmentation part       72.0000000 magnetization      12.0000000

 Free energy of the ion-electron system (eV)
  ---------------------------------------------------
  alpha Z        PSCENC =       346.87334610
  Ewald energy   TEWEN  =     -3774.24442500
  -Hartree energ DENC   =      -936.97956937
  -exchange      EXHF   =         0.00000000
  -V(xc)+E(xc)   XCENC  =       -21.59088935
  PAW double counting   =      3833.25080917    -3562.94813318
  entropy T*S    EENTRO =        -0.00117520
  eigenvalues    EBANDS =      -317.67254072
  atomic energy  EATOM  =      4328.96416383
  Solvation  Ediel_sol  =         0.00000000
  ---------------------------------------------------
  free energy    TOTEN  =      -104.34841372 eV

  energy without entropy =     -104.34723853  energy(sigma->0) =     -104.34782613


--------------------------------------------------------------------------------------------------------




----------------------------------------- Iteration    1(   5)  ---------------------------------------


    EDDIAG:  cpu time    1.9828: real time    1.9956
  RMM-DIIS:  cpu time    0.9288: real time    0.9342
    ORTHCH:  cpu time    0.3228: real time    0.3249
       DOS:  cpu time    0.0068: real time    0.0069
    --------------------------------------------
      LOOP:  cpu time    3.2424: real time    3.2749

 eigenvalue-minimisations  : 19264
 total energy-change (2. order) :-0.1459966E+02  (-0.1078471E+02)
 number of electron      72.0000000 magnetization      12.0000000
 augmentation part       72.0000000 magnetization      12.0000000

 Free energy of the ion-electron system (eV)
  ---------------------------------------------------
  alpha Z        PSCENC =       346.87334610
  Ewald energy   TEWEN  =     -3774.24442500
  -Hartree energ DENC   =      -936.97956937
  -exchange      EXHF   =         0.00000000
  -V(xc)+E(xc)   XCENC  =       -21.59088935
  PAW double counting   =      3833.25080917    -3562.94813318
  entropy T*S    EENTRO =        -0.00095141
  eigenvalues    EBANDS =      -332.27242259
  atomic energy  EATOM  =      4328.96416383
  Solvation  Ediel_sol  =         0.00000000
  ---------------------------------------------------
  free energy    TOTEN  =      -118.94807180 eV

  energy without entropy =     -118.94712039  energy(sigma->0) =     -118.94759610


--------------------------------------------------------------------------------------------------------




----------------------------------------- Iteration    1(   6)  ---------------------------------------


    EDDIAG:  cpu time    1.9830: real time    1.9955
  RMM-DIIS:  cpu time    0.9338: real time    0.9397
    ORTHCH:  cpu time    0.3194: real time    0.3216
       DOS:  cpu time    0.0067: real time    0.0067
    --------------------------------------------
      LOOP:  cpu time    3.2441: real time    3.2775

 eigenvalue-minimisations  : 19264
 total energy-change (2. order) :-0.3472650E+01  (-0.2766131E+01)
 number of electron      72.0000000 magnetization      12.0000000
 augmentation part       72.0000000 magnetization      12.0000000

 Free energy of the ion-electron system (eV)
  ---------------------------------------------------
  alpha Z        PSCENC =       346.87334610
  Ewald energy   TEWEN  =     -3774.24442500
  -Hartree energ DENC   =      -936.97956937
  -exchange      EXHF   =         0.00000000
  -V(xc)+E(xc)   XCENC  =       -21.59088935
  PAW double counting   =      3833.25080917    -3562.94813318
  entropy T*S    EENTRO =        -0.00102696
  eigenvalues    EBANDS =      -335.74499733
  atomic energy  EATOM  =      4328.96416383
  Solvation  Ediel_sol  =         0.00000000
  ---------------------------------------------------
  free energy    TOTEN  =      -122.42072209 eV

  energy without entropy =     -122.41969513  energy(sigma->0) =     -122.42020861


--------------------------------------------------------------------------------------------------------




----------------------------------------- Iteration    1(   7)  ---------------------------------------


    EDDIAG:  cpu time    2.0012: real time    2.0143
  RMM-DIIS:  cpu time    0.9257: real time    0.9307
    ORTHCH:  cpu time    0.3165: real time    0.3186
       DOS:  cpu time    0.0064: real time    0.0064
    --------------------------------------------
      LOOP:  cpu time    3.2510: real time    3.2855

 eigenvalue-minimisations  : 19264
 total energy-change (2. order) :-0.9327542E+00  (-0.7917876E+00)
 number of electron      72.0000000 magnetization      12.0000000
 augmentation part       72.0000000 magnetization      12.0000000

 Free energy of the ion-electron system (eV)
  ---------------------------------------------------
  alpha Z        PSCENC =       346.87334610
  Ewald energy   TEWEN  =     -3774.24442500
  -Hartree energ DENC   =      -936.97956937
  -exchange      EXHF   =         0.00000000
  -V(xc)+E(xc)   XCENC  =       -21.59088935
  PAW double counting   =      3833.25080917    -3562.94813318
  entropy T*S    EENTRO =        -0.00105418
  eigenvalues    EBANDS =      -336.67772427
  atomic energy  EATOM  =      4328.96416383
  Solvation  Ediel_sol  =         0.00000000
  ---------------------------------------------------
  free energy    TOTEN  =      -123.35347626 eV

  energy without entropy =     -123.35242208  energy(sigma->0) =     -123.35294917


--------------------------------------------------------------------------------------------------------




----------------------------------------- Iteration    1(   8)  ---------------------------------------


    EDDIAG:  cpu time    1.9855: real time    1.9985
  RMM-DIIS:  cpu time    0.9312: real time    0.9367
[...]
     44       6.9916      0.00000
     45       7.8651      0.00000
     46       8.1682      0.00000
     47       8.7451      0.00000
     48       9.0848      0.00000
     49       9.3944      0.00000
     50       9.8546      0.00000
     51      11.1224      0.00000
     52      11.1916      0.00000
     53      12.1184      0.00000
     54      13.0186      0.00000
     55      15.3279      0.00000
     56      15.3803      0.00000

 k-point   171 :      -0.2857   -0.1429    0.4286
  band No.  band energies     occupation 
      1     -15.0386      1.00000
      2     -14.7205      1.00000
      3     -14.5442      1.00000
      4     -14.4970      1.00000
      5     -14.1330      1.00000
      6     -13.9995      1.00000
      7     -13.9032      1.00000
      8     -13.8294      1.00000
      9      -3.0832      1.00000
     10      -2.7997      1.00000
     11      -2.6275      1.00000
     12      -2.2644      1.00000
     13      -2.1231      1.00000
     14      -1.9554      1.00000
     15      -1.8625      1.00000
     16      -1.7056      1.00000
     17      -1.3764      1.00000
     18      -0.9632      1.00000
     19      -0.7160      1.00000
     20      -0.3986      1.00000
     21      -0.1827      1.00000
     22      -0.0588      1.00000
     23       0.1061      1.00000
     24       0.1960      1.00000
     25       0.5178      1.00000
     26       0.6635      1.00000
     27       0.9228      1.00000
     28       1.1702      1.00000
     29       1.2458      1.00000
     30       1.5570      1.00000
     31       1.8621      1.00000
     32       2.2007      1.00000
     33       3.1250      1.00000
     34       3.5517      1.00000
     35       4.1696      1.00000
     36       4.7073      0.77880
     37       5.0175      0.00000
     38       5.4124      0.00000
     39       5.8408      0.00000
     40       5.9650      0.00000
     41       6.4907      0.00000
     42       6.9050      0.00000
     43       6.9623      0.00000
     44       7.3023      0.00000
     45       8.0010      0.00000
     46       8.3347      0.00000
     47       8.6784      0.00000
     48       9.1887      0.00000
     49       9.4256      0.00000
     50       9.7410      0.00000
     51      10.6412      0.00000
     52      11.1995      0.00000
     53      11.9361      0.00000
     54      13.4821      0.00000
     55      14.4208      0.00000
     56      15.6752      0.00000

 k-point   172 :      -0.1429   -0.1429    0.4286
  band No.  band energies     occupation 
      1     -15.0526      1.00000
      2     -14.7089      1.00000
      3     -14.5836      1.00000
      4     -14.5081      1.00000
      5     -14.1082      1.00000
      6     -14.0294      1.00000
      7     -13.9123      1.00000
      8     -13.8004      1.00000
      9      -3.0764      1.00000
     10      -2.7195      1.00000
     11      -2.4566      1.00000
     12      -2.2538      1.00000
     13      -2.1652      1.00000
     14      -1.8920      1.00000
     15      -1.8465      1.00000
     16      -1.6757      1.00000
     17      -1.6073      1.00000
     18      -0.9342      1.00000
     19      -0.6442      1.00000
     20      -0.4768      1.00000
     21      -0.3073      1.00000
     22      -0.2101      1.00000
     23      -0.0979      1.00000
     24       0.1154      1.00000
     25       0.4379      1.00000
     26       0.8016      1.00000
     27       0.9761      1.00000
     28       1.0977      1.00000
     29       1.3050      1.00000
     30       1.4163      1.00000
     31       1.5994      1.00000
     32       2.1229      1.00000
     33       3.2255      1.00000
     34       3.5851      1.00000
     35       4.4339      1.00000
     36       4.9667      0.00000
     37       5.3909      0.00000
     38       5.5925      0.00000
     39       5.8304      0.00000
     40       6.0930      0.00000
     41       6.2880      0.00000
     42       6.7852      0.00000
     43       7.3498      0.00000
     44       7.7090      0.00000
     45       8.1328      0.00000
     46       8.5220      0.00000
     47       8.8587      0.00000
     48       9.2928      0.00000
     49       9.4249      0.00000
     50       9.4879      0.00000
     51      10.1365      0.00000
     52      10.8433      0.00000
     53      11.8776      0.00000
     54      13.6054      0.00000
     55      14.2577      0.00000
     56      16.3379      0.00000


--------------------------------------------------------------------------------------------------------


 soft charge-density along one line, spin component           1
         0         1         2         3         4         5         6         7         8         9
 total charge-density along one line
 
 soft charge-density along one line, spin component           2
         0         1         2         3         4         5         6         7         8         9
 total charge-density along one line
 
 pseudopotential strength for first ion, spin component:           1
 -8.136   0.003  -0.002  -0.000   0.000  -8.346   0.003  -0.002
  0.003  -8.158  -0.017   0.004   0.031   0.003  -8.367  -0.017
 -0.002  -0.017  -8.142  -0.001  -0.019  -0.002  -0.017  -8.352
 -0.000   0.004  -0.001  -8.138   0.003  -0.000   0.004  -0.001
  0.000   0.031  -0.019   0.003  -8.123   0.000   0.031  -0.019
 -8.346   0.003  -0.002  -0.000   0.000  -8.546   0.003  -0.002
  0.003  -8.367  -0.017   0.004   0.031   0.003  -8.566  -0.017
 -0.002  -0.017  -8.352  -0.001  -0.019  -0.002  -0.017  -8.551
 -0.000   0.004  -0.001  -8.348   0.003   0.000   0.004  -0.001
  0.000   0.031  -0.019   0.003  -8.333   0.000   0.030  -0.019
 -0.002   0.014   0.005  -0.002  -0.009  -0.002   0.014   0.005
 -0.004   0.029   0.011  -0.003  -0.020  -0.004   0.029   0.011
  0.037   0.002  -0.000  -0.003  -0.002   0.037   0.002  -0.000
 -0.003   0.003  -0.002   0.038   0.000  -0.003   0.003  -0.002
  0.002  -0.003  -0.026   0.002   0.047   0.002  -0.003  -0.027
  0.052   0.003  -0.001  -0.004  -0.003   0.052   0.004  -0.001
 -0.004   0.005  -0.001   0.054   0.000  -0.004   0.005  -0.001
  0.003  -0.004  -0.036   0.004   0.063   0.003  -0.004  -0.036
 pseudopotential strength for first ion, spin component:           2
 -8.136   0.003  -0.002  -0.000   0.000  -8.346   0.003  -0.002
  0.003  -8.158  -0.017   0.004   0.031   0.003  -8.367  -0.017
 -0.002  -0.017  -8.143  -0.001  -0.019  -0.002  -0.017  -8.352
 -0.000   0.004  -0.001  -8.138   0.003  -0.000   0.004  -0.001
  0.000   0.031  -0.019   0.003  -8.123   0.000   0.031  -0.019
 -8.346   0.003  -0.002  -0.000   0.000  -8.546   0.003  -0.002
  0.003  -8.367  -0.017   0.004   0.031   0.003  -8.566  -0.017
 -0.002  -0.017  -8.352  -0.001  -0.019  -0.002  -0.017  -8.551
 -0.000   0.004  -0.001  -8.348   0.003   0.000   0.004  -0.001
  0.000   0.031  -0.019   0.003  -8.333   0.000   0.030  -0.019
 -0.002   0.014   0.005  -0.002  -0.009  -0.002   0.014   0.005
 -0.004   0.029   0.011  -0.003  -0.020  -0.004   0.029   0.011
  0.037   0.002  -0.000  -0.003  -0.002   0.037   0.002  -0.000
 -0.003   0.003  -0.002   0.038   0.000  -0.003   0.003  -0.002
  0.002  -0.003  -0.026   0.002   0.047   0.002  -0.003  -0.027
  0.052   0.003  -0.001  -0.004  -0.003   0.052   0.004  -0.001
 -0.004   0.005  -0.001   0.054   0.000  -0.004   0.005  -0.001
  0.003  -0.004  -0.036   0.004   0.063   0.003  -0.004  -0.036
 total augmentation occupancy for first ion, spin component:           1
  7.652  -0.182  -0.140  -4.179   0.033  -8.541   0.212   0.161   5.199  -0.047   0.026  -0.004  -0.062   0.263  -0.109   0.006
 -0.182  11.090   1.850  -0.315  -4.107   0.209 -12.700  -2.245   0.361   4.956  -0.124  -0.003  -0.052   0.034   0.343   0.007
 -0.140   1.850   3.203   0.191  -1.306   0.161  -2.259  -3.422  -0.223   1.416  -0.070   0.003   0.084  -0.118  -0.141  -0.013
 -4.179  -0.315   0.191   8.115  -0.016   5.200   0.365  -0.223  -9.120   0.012   0.013  -0.003   0.278  -0.143  -0.078  -0.033
  0.033  -4.107  -1.306  -0.016   5.129  -0.048   4.979   1.414   0.013  -5.544   0.083   0.004  -0.013   0.011   0.144   0.002
 -8.541   0.209   0.161   5.200  -0.048  10.207  -0.226  -0.185  -6.057   0.071  -0.024   0.002   0.094  -0.277   0.125  -0.004
  0.212 -12.700  -2.259   0.365   4.979  -0.226  15.074   2.541  -0.394  -5.626   0.151   0.011   0.051  -0.051  -0.319  -0.006
  0.161  -2.245  -3.422  -0.223   1.414  -0.185   2.541   4.500   0.234  -1.682   0.037  -0.004  -0.098   0.135   0.084   0.015
  5.199   0.361  -0.223  -9.120   0.013  -6.057  -0.394   0.234  10.877   0.015  -0.003   0.002  -0.288   0.174   0.091   0.035
 -0.047   4.956   1.416   0.012  -5.544   0.071  -5.626  -1.682   0.015   6.974  -0.016  -0.002   0.015   0.005  -0.053  -0.003
  0.026  -0.124  -0.070   0.013   0.083  -0.024   0.151   0.037  -0.003  -0.016   1.963  -0.150   0.004   0.035   0.068  -0.001
 -0.004  -0.003   0.003  -0.003   0.004   0.002   0.011  -0.004   0.002  -0.002  -0.150   0.016  -0.002  -0.004  -0.003   0.000
 -0.062  -0.052   0.084   0.278  -0.013   0.094   0.051  -0.098  -0.288   0.015   0.004  -0.002   0.471   0.017  -0.005  -0.061
  0.263   0.034  -0.118  -0.143   0.011  -0.277  -0.051   0.135   0.174   0.005   0.035  -0.004   0.017   0.474   0.000  -0.002
 -0.109   0.343  -0.141  -0.078   0.144   0.125  -0.319   0.084   0.091  -0.053   0.068  -0.003  -0.005   0.000   0.452   0.001
  0.006   0.007  -0.013  -0.033   0.002  -0.004  -0.006   0.015   0.035  -0.003  -0.001   0.000  -0.061  -0.002   0.001   0.008
 -0.031  -0.007   0.018   0.016  -0.000   0.034   0.010  -0.021  -0.014  -0.001  -0.005   0.001  -0.002  -0.062   0.000   0.000
  0.016  -0.035   0.021   0.011  -0.024  -0.017   0.037  -0.025  -0.011   0.030  -0.000   0.000   0.001   0.000  -0.056  -0.000
 total augmentation occupancy for first ion, spin component:           2
 -0.000  -0.000  -0.000   0.000  -0.000   0.000   0.000   0.000  -0.000   0.000   0.000  -0.000   0.000   0.000   0.000  -0.000
 -0.000  -0.000  -0.000  -0.000   0.000  -0.000   0.000   0.000   0.000  -0.000  -0.000   0.000   0.000  -0.000   0.000  -0.000
 -0.000  -0.000  -0.000  -0.000  -0.000   0.000  -0.000   0.000   0.000  -0.000  -0.000   0.000  -0.000   0.000  -0.000   0.000
  0.000  -0.000  -0.000  -0.000  -0.000  -0.000   0.000   0.000   0.000   0.000  -0.000   0.000   0.000   0.000   0.000   0.000
 -0.000   0.000  -0.000  -0.000  -0.000   0.000  -0.000  -0.000   0.000   0.000   0.000  -0.000  -0.000  -0.000   0.000  -0.000
  0.000  -0.000   0.000  -0.000   0.000  -0.000   0.000  -0.000   0.000  -0.000  -0.000   0.000  -0.000  -0.000  -0.000   0.000
  0.000   0.000  -0.000   0.000  -0.000   0.000  -0.000   0.000  -0.000  -0.000   0.000  -0.000  -0.000   0.000  -0.000  -0.000
  0.000   0.000   0.000   0.000  -0.000  -0.000   0.000  -0.000   0.000   0.000   0.000  -0.000   0.000  -0.000   0.000  -0.000
 -0.000   0.000   0.000   0.000   0.000   0.000  -0.000   0.000  -0.000  -0.000   0.000  -0.000  -0.000  -0.000  -0.000  -0.000
  0.000  -0.000  -0.000   0.000   0.000  -0.000  -0.000   0.000  -0.000  -0.000  -0.000   0.000   0.000   0.000  -0.000   0.000
  0.000  -0.000  -0.000  -0.000   0.000  -0.000   0.000   0.000   0.000  -0.000  -0.000   0.000  -0.000  -0.000  -0.000   0.000
 -0.000   0.000   0.000   0.000  -0.000   0.000  -0.000  -0.000  -0.000   0.000   0.000  -0.000   0.000   0.000   0.000  -0.000
  0.000   0.000  -0.000   0.000  -0.000  -0.000  -0.000   0.000  -0.000   0.000  -0.000   0.000  -0.000  -0.000   0.000   0.000
  0.000  -0.000   0.000   0.000  -0.000  -0.000   0.000  -0.000  -0.000   0.000  -0.000   0.000  -0.000  -0.000   0.000   0.000
  0.000   0.000  -0.000   0.000   0.000  -0.000  -0.000   0.000  -0.000  -0.000  -0.000   0.000   0.000   0.000  -0.000  -0.000
 -0.000  -0.000   0.000   0.000  -0.000   0.000  -0.000  -0.000  -0.000   0.000   0.000  -0.000   0.000   0.000  -0.000  -0.000
  0.000   0.000  -0.000  -0.000   0.000  -0.000  -0.000   0.000   0.000  -0.000   0.000  -0.000   0.000   0.000  -0.000  -0.000
 -0.000   0.000  -0.000  -0.000   0.000   0.000  -0.000   0.000  -0.000  -0.000   0.000  -0.000  -0.000  -0.000   0.000   0.000


------------------------ aborting loop because EDIFF is reached ----------------------------------------


    CHARGE:  cpu time    0.1206: real time    0.1212
    FORLOC:  cpu time    0.0002: real time    0.0002
    FORNL :  cpu time    0.9351: real time    0.9402
    STRESS:  cpu time    2.8181: real time    2.8323
    FORCOR:  cpu time    0.0082: real time    0.0082
    FORHAR:  cpu time    0.0010: real time    0.0011
    MIXING:  cpu time    0.0005: real time    0.0005
    OFIELD:  cpu time    0.0000: real time    0.0000

 ---------------------------------------------------------------------------------------------

         DFTD3 V3.0 Rev 1        
 IVDW         = 12
 DF pbe       
 parameters
 VDW_S6       =    1.0000
 VDW_S8       =    0.7875
 VDW_A1       =    0.4289
 VDW_A2       =    4.4407
 k1-k3        =   16.0000    1.3333   -4.0000
 VDW_RADIUS   =   50.2022 A
 VDW_CNRADIUS =   21.1671 A
 Edisp (eV)   -2.96990

 E6    (eV) :    -1.7932
 E8    (eV) :    -1.1767
 % E8        : 39.62
    FORVDW:  cpu time    0.0623: real time    0.0627

  FORCE on cell =-STRESS in cart. coord.  units (eV):
  Direction    XX          YY          ZZ          XY          YZ          ZX
  --------------------------------------------------------------------------------------
  Alpha Z   346.87335   346.87335   346.87335
  Ewald   -1101.21934 -1336.46103 -1336.56918     0.00934    -0.04397    -2.77322
  Hartree   416.82689   310.89721   305.95388     0.00191    -0.01138     2.66532
  E(xc)    -356.32329  -352.66860  -352.77089    -0.00019     0.00063    -0.28178
  Local    -494.75865  -161.96317  -157.04799    -0.01076     0.05163    -0.01676
  n-local  -251.37522  -240.32285  -240.00445     0.00228    -0.00498    -1.07775
  augment    89.49929    87.43048    87.42005     0.00001     0.00023     0.14342
  Kinetic  1353.61691  1349.41706  1349.07854    -0.00015    -0.00197     1.37213
  Fock        0.00000     0.00000     0.00000     0.00000     0.00000     0.00000
  vdW        -3.07190    -3.13764    -3.13924    -0.00000    -0.00002    -0.00551
  -------------------------------------------------------------------------------------
  Total       0.06804     0.06481    -0.20593     0.00245    -0.00983     0.02587
  in kB       0.81695     0.77813    -2.47250     0.02939    -0.11797     0.31055
  external pressure =       -0.29 kB  Pullay stress =        0.00 kB


 VOLUME and BASIS-vectors are now :
 -----------------------------------------------------------------------------
  energy-cutoff  :      600.00
  volume of cell :      133.44
      direct lattice vectors                 reciprocal lattice vectors
     5.587050926 -0.000011174 -0.007075527     0.179119462 -0.000001271  0.105936501
    -0.000008949  4.895683084  0.000073869     0.000000405  0.204261588 -0.000003150
    -2.887533662  0.000081003  4.882297166     0.000259584 -0.000003092  0.204975142

  length of vectors
     5.587055406  4.895683085  5.672272585     0.208101715  0.204261588  0.204975307


 FORCES acting on ions
    electron-ion (+dipol)            ewald-force                    non-local-force                 convergence-correction
 -----------------------------------------------------------------------------------------------
   0.181E+02 0.442E+01 0.176E+02   -.193E+02 -.451E+01 -.174E+02   0.119E+01 0.103E+00 -.157E+00   0.333E-03 -.174E-03 0.196E-03
   -.181E+02 0.442E+01 -.176E+02   0.193E+02 -.452E+01 0.174E+02   -.119E+01 0.104E+00 0.158E+00   -.314E-03 -.183E-03 -.188E-03
   -.181E+02 -.442E+01 -.176E+02   0.193E+02 0.451E+01 0.174E+02   -.119E+01 -.103E+00 0.157E+00   -.333E-03 0.174E-03 -.196E-03
   0.181E+02 -.442E+01 0.176E+02   -.193E+02 0.452E+01 -.174E+02   0.119E+01 -.104E+00 -.158E+00   0.314E-03 0.183E-03 0.188E-03
   0.884E+01 0.108E+02 -.128E+02   -.881E+01 -.114E+02 0.146E+02   -.424E-01 0.656E+00 -.177E+01   0.654E-03 -.323E-03 0.567E-03
   -.884E+01 0.108E+02 0.128E+02   0.880E+01 -.114E+02 -.146E+02   0.431E-01 0.657E+00 0.177E+01   -.667E-03 -.526E-03 -.764E-03
   -.884E+01 -.108E+02 0.128E+02   0.881E+01 0.114E+02 -.146E+02   0.424E-01 -.656E+00 0.177E+01   -.654E-03 0.323E-03 -.567E-03
   0.884E+01 -.108E+02 -.128E+02   -.880E+01 0.114E+02 0.146E+02   -.431E-01 -.657E+00 -.177E+01   0.667E-03 0.526E-03 0.764E-03
   0.915E+01 0.125E+02 0.224E+02   -.100E+02 -.167E+02 -.283E+02   0.850E+00 0.423E+01 0.593E+01   0.727E-03 -.246E-03 -.824E-04
   -.915E+01 0.125E+02 -.224E+02   0.100E+02 -.167E+02 0.283E+02   -.850E+00 0.423E+01 -.593E+01   -.714E-03 -.289E-04 -.144E-03
   -.915E+01 -.125E+02 -.224E+02   0.100E+02 0.167E+02 0.283E+02   -.850E+00 -.423E+01 -.593E+01   -.727E-03 0.246E-03 0.824E-04
   0.915E+01 -.125E+02 0.224E+02   -.100E+02 0.167E+02 -.283E+02   0.850E+00 -.423E+01 0.593E+01   0.714E-03 0.289E-04 0.144E-03
 -----------------------------------------------------------------------------------------------
   0.224E-11 0.201E-11 0.636E-11   -.124E-13 0.355E-13 0.355E-14   0.444E-15 -.178E-14 -.888E-15   -.394E-13 0.530E-13 -.707E-13
 
 
 POSITION                                       TOTAL-FORCE (eV/Angst)
 -----------------------------------------------------------------------------------
      0.11021      2.40869      2.35626        -0.045669      0.010578      0.003981
      4.03307      4.85653      0.07791         0.042763      0.010454     -0.002462
      2.58929      2.48706      2.51904         0.045669     -0.010578     -0.003981
     -1.33356      0.03922      4.79739        -0.042763     -0.010454      0.002462
     -1.41482      1.48484      3.42701        -0.005335     -0.006342      0.006367
      2.67059      3.93268      3.88945         0.004781     -0.006435     -0.006477
      4.11433      3.41092      1.44829         0.005335      0.006342     -0.006367
      0.02892      0.96308      0.98585        -0.004781      0.006435      0.006477
     -0.04355      3.83252      3.73096        -0.004883     -0.009654     -0.004738
      1.29927      1.38470      3.58547         0.004942     -0.010676      0.005361
      2.74305      1.06323      1.14434         0.004883      0.009654      0.004738
      1.40024      3.51105      1.28983        -0.004942      0.010676     -0.005361
 -----------------------------------------------------------------------------------
    total drift:                                0.000000      0.000000      0.000000


--------------------------------------------------------------------------------------------------------



  FREE ENERGIE OF THE ION-ELECTRON SYSTEM (eV)
  ---------------------------------------------------
  free  energy   TOTEN  =      -108.79168124 eV

  energy  without entropy=     -108.79083634  energy(sigma->0) =     -108.79125879
 


--------------------------------------------------------------------------------------------------------


    POTLOK:  cpu time    0.0140: real time    0.0141


--------------------------------------------------------------------------------------------------------


 stress matrix after NEB project (eV)
      0.06804      0.00245      0.02587
      0.00245      0.06481     -0.00983
      0.02587     -0.00983     -0.20593
  FORCES: max atom, RMS     0.047046    0.027927
  FORCE total and by dimension    0.096741    0.045669
  Stress total and by dimension    0.229740    0.205930


--------------------------------------------------------------------------------------------------------


    WAVPRE:  cpu time    0.0007: real time    0.0007
 FEWALD executed in parallel
    FEWALD:  cpu time    0.0003: real time    0.0003
    GENKIN:  cpu time    0.0221: real time    0.0223

 real space projection operators:
  total allocation   :       3373.06 KBytes
  max/ min on nodes  :        469.80        370.12

    ORTHCH:  cpu time    0.6493: real time    0.6530
     LOOP+:  cpu time   90.7083: real time   91.5763