 vasp.5.4.1 05Feb16 (build Apr 23 2022 14:15:44) complex                        
  
 executed on           IFC91_ompi date 2024.06.24  19:42:39
 running on   64 total cores
 distrk:  each k-point on   64 cores,    1 groups
 distr:  one band on NCORES_PER_BAND=   8 cores,    8 groups


--------------------------------------------------------------------------------------------------------


 INCAR:
 POTCAR:    PAW_PBE Mo 08Apr2002                  
 POTCAR:    PAW_PBE O 08Apr2002                   
 POTCAR:    PAW_PBE Li 17Jan2003                  
 POTCAR:    PAW_PBE Mo 08Apr2002                  
   VRHFIN =Mo: 4p5s4d                                                           
   LEXCH  = PE                                                                  
   EATOM  =   217.5176 eV,   15.9871 Ry                                         
                                                                                
   TITEL  = PAW_PBE Mo 08Apr2002                                                
   LULTRA =        F    use ultrasoft PP ?                                      
   IUNSCR =        1    unscreen: 0-lin 1-nonlin 2-no                           
   RPACOR =    2.200    partial core radius                                     
   POMASS =   95.940; ZVAL   =    6.000    mass and valenz                      
   RCORE  =    2.750    outmost cutoff radius                                   
   RWIGS  =    2.750; RWIGS  =    1.455    wigner-seitz radius (au A)           
   ENMAX  =  224.584; ENMIN  =  168.438 eV                                      
   RCLOC  =    2.111    cutoff for local pot                                    
   LCOR   =        T    correct aug charges                                     
   LPAW   =        T    paw PP                                                  
   EAUG   =  345.278                                                            
   DEXC   =    0.000                                                            
   RMAX   =    2.821    core radius for proj-oper                               
   RAUG   =    1.300    factor for augmentation sphere                          
   RDEP   =    2.815    radius for radial grids                                 
   RDEPT  =    2.211    core radius for aug-charge                              
                                                                                
   Atomic configuration                                                         
   12 entries                                                                   
     n  l   j            E        occ.                                          
     1  0  0.50    -19819.0341   2.0000                                         
     2  0  0.50     -2799.0127   2.0000                                         
     2  1  1.50     -2502.0276   6.0000                                         
     3  0  0.50      -476.4448   2.0000                                         
     3  1  1.50      -379.1496   6.0000                                         
     3  2  2.50      -220.9367  10.0000                                         
     4  0  0.50       -64.3378   2.0000                                         
     4  1  1.50       -38.4773   6.0000                                         
     4  2  2.50        -3.7535   5.0000                                         
     5  0  0.50        -4.0862   1.0000                                         
     5  1  0.50        -2.7701   0.0000                                         
     4  3  2.50        -1.3606   0.0000                                         
   Description                                                                  
     l       E           TYP  RCUT    TYP  RCUT                                 
     2     -3.7534765     23  2.500                                             
     2     -5.1140591     23  2.500                                             
     0     -4.0861560     23  2.600                                             
     0     13.6058260     23  2.600                                             
     1      5.4423304     23  2.750                                             
     1     27.2116520     23  2.750                                             
  local pseudopotential read in
  partial core-charges read in
  partial kinetic energy density read in
  atomic valenz-charges read in
  non local Contribution for L=           2  read in
    real space projection operators read in
  non local Contribution for L=           2  read in
    real space projection operators read in
  non local Contribution for L=           0  read in
    real space projection operators read in
  non local Contribution for L=           0  read in
    real space projection operators read in
  non local Contribution for L=           1  read in
    real space projection operators read in
  non local Contribution for L=           1  read in
    real space projection operators read in
    PAW grid and wavefunctions read in
 
   number of l-projection  operators is LMAX  =           6
   number of lm-projection operators is LMMAX =          18
 
 POTCAR:    PAW_PBE O 08Apr2002                   
   VRHFIN =O: s2p4                                                              
   LEXCH  = PE                                                                  
   EATOM  =   432.3788 eV,   31.7789 Ry                                         
                                                                                
   TITEL  = PAW_PBE O 08Apr2002                                                 
   LULTRA =        F    use ultrasoft PP ?                                      
   IUNSCR =        1    unscreen: 0-lin 1-nonlin 2-no                           
   RPACOR =    1.200    partial core radius                                     
   POMASS =   16.000; ZVAL   =    6.000    mass and valenz                      
   RCORE  =    1.520    outmost cutoff radius                                   
   RWIGS  =    1.550; RWIGS  =    0.820    wigner-seitz radius (au A)           
   ENMAX  =  400.000; ENMIN  =  300.000 eV                                      
   ICORE  =        2    local potential                                         
   LCOR   =        T    correct aug charges                                     
   LPAW   =        T    paw PP                                                  
   EAUG   =  605.392                                                            
   DEXC   =    0.000                                                            
   RMAX   =    1.553    core radius for proj-oper                               
   RAUG   =    1.300    factor for augmentation sphere                          
   RDEP   =    1.550    radius for radial grids                                 
   RDEPT  =    1.329    core radius for aug-charge                              
                                                                                
   Atomic configuration                                                         
    4 entries                                                                   
     n  l   j            E        occ.                                          
     1  0  0.50      -514.6923   2.0000                                         
     2  0  0.50       -23.9615   2.0000                                         
     2  1  0.50        -9.0305   4.0000                                         
     3  2  1.50        -9.5241   0.0000                                         
   Description                                                                  
     l       E           TYP  RCUT    TYP  RCUT                                 
     0    -23.9615318     23  1.200                                             
     0     -9.5240782     23  1.200                                             
     1     -9.0304911     23  1.520                                             
     1      8.1634956     23  1.520                                             
     2     -9.5240782      7  1.500                                             
  local pseudopotential read in
  partial core-charges read in
  partial kinetic energy density read in
  kinetic energy density of atom read in
  atomic valenz-charges read in
  non local Contribution for L=           0  read in
    real space projection operators read in
  non local Contribution for L=           0  read in
    real space projection operators read in
  non local Contribution for L=           1  read in
    real space projection operators read in
  non local Contribution for L=           1  read in
    real space projection operators read in
    PAW grid and wavefunctions read in
 
   number of l-projection  operators is LMAX  =           4
   number of lm-projection operators is LMMAX =           8
 
 POTCAR:    PAW_PBE Li 17Jan2003                  
   VRHFIN =Li: s1p0                                                             
   LEXCH  = PE                                                                  
   EATOM  =     5.3001 eV,    0.3895 Ry                                         
                                                                                
   TITEL  = PAW_PBE Li 17Jan2003                                                
   LULTRA =        F    use ultrasoft PP ?                                      
   IUNSCR =        1    unscreen: 0-lin 1-nonlin 2-no                           
   RPACOR =    1.500    partial core radius                                     
   POMASS =    7.010; ZVAL   =    1.000    mass and valenz                      
   RCORE  =    2.050    outmost cutoff radius                                   
   RWIGS  =    2.600; RWIGS  =    1.376    wigner-seitz radius (au A)           
   ENMAX  =  140.000; ENMIN  =  100.000 eV                                      
   ICORE  =        2    local potential                                         
   LCOR   =        T    correct aug charges                                     
   LPAW   =        T    paw PP                                                  
   EAUG   =  331.638                                                            
   DEXC   =    0.000                                                            
   RMAX   =    2.098    core radius for proj-oper                               
   RAUG   =    1.300    factor for augmentation sphere                          
   RDEP   =    2.094    radius for radial grids                                 
   RDEPT  =    1.810    core radius for aug-charge                              
                                                                                
   Atomic configuration                                                         
    4 entries                                                                   
     n  l   j            E        occ.                                          
     1  0  0.50       -51.8549   2.0000                                         
     2  0  0.50        -2.8742   1.0000                                         
     2  1  0.50        -1.3606   0.0000                                         
     3  2  1.50        -1.3606   0.0000                                         
   Description                                                                  
     l       E           TYP  RCUT    TYP  RCUT                                 
     0     -2.8742052     23  2.050                                             
     0     27.2116520     23  2.050                                             
     1     -1.3605826     23  2.050                                             
     2     -1.3605826     23  2.050                                             
  local pseudopotential read in
  partial core-charges read in
  partial kinetic energy density read in
  atomic valenz-charges read in
  non local Contribution for L=           0  read in
    real space projection operators read in
  non local Contribution for L=           0  read in
    real space projection operators read in
  non local Contribution for L=           1  read in
    real space projection operators read in
    PAW grid and wavefunctions read in
 
   number of l-projection  operators is LMAX  =           3
   number of lm-projection operators is LMMAX =           5
 
 Optimization of the real space projectors (new method)

 maximal supplied QI-value         = 13.61
 optimisation between [QCUT,QGAM] = [ 12.52, 25.04] = [ 43.88,175.51] Ry 
 Optimized for a Real-space Cutoff    1.56 Angstroem

   l    n(q)    QCUT    max X(q) W(low)/X(q) W(high)/X(q)  e(spline) 
   2     11    12.518    80.908    0.42E-03    0.30E-03    0.14E-05
   2     11    12.518    79.000    0.42E-03    0.30E-03    0.14E-05
   0     12    12.518    52.066    0.58E-04    0.50E-04    0.55E-06
   0     12    12.518    24.514    0.48E-04    0.41E-04    0.46E-06
   1     11    12.518    16.033    0.62E-04    0.13E-03    0.37E-06
   1     11    12.518    11.179    0.47E-04    0.10E-03    0.31E-06
 Optimization of the real space projectors (new method)

 maximal supplied QI-value         = 24.76
 optimisation between [QCUT,QGAM] = [ 12.38, 25.00] = [ 42.90,175.06] Ry 
 Optimized for a Real-space Cutoff    1.13 Angstroem

   l    n(q)    QCUT    max X(q) W(low)/X(q) W(high)/X(q)  e(spline) 
   0      8    12.378    20.381    0.16E-03    0.54E-05    0.27E-06
   0      8    12.378    15.268    0.17E-03    0.61E-05    0.29E-06
   1      8    12.378     5.964    0.38E-03    0.23E-03    0.28E-06
   1      8    12.378     5.382    0.33E-03    0.20E-03    0.25E-06
 Optimization of the real space projectors (new method)

 maximal supplied QI-value         = 18.33
 optimisation between [QCUT,QGAM] = [ 12.46, 24.93] = [ 43.51,174.03] Ry 
 Optimized for a Real-space Cutoff    1.13 Angstroem

   l    n(q)    QCUT    max X(q) W(low)/X(q) W(high)/X(q)  e(spline) 
   0      8    12.465    33.825    0.12E-03    0.29E-03    0.99E-07
   0      8    12.465     8.944    0.86E-04    0.22E-03    0.72E-07
   1      8    12.465     4.214    0.27E-03    0.11E-03    0.82E-07
  PAW_PBE Mo 08Apr2002                  :
 energy of atom  1       EATOM= -217.5176
 kinetic energy error for atom=    0.0005 (will be added to EATOM!!)
  PAW_PBE O 08Apr2002                   :
 energy of atom  2       EATOM= -432.3788
 kinetic energy error for atom=    0.0168 (will be added to EATOM!!)
  PAW_PBE Li 17Jan2003                  :
 energy of atom  3       EATOM=   -5.3001
 kinetic energy error for atom=    0.0000 (will be added to EATOM!!)
 
 
 POSCAR: Mo  O Li                                
  positions in cartesian coordinates
  No initial velocities read in
 exchange correlation table for  LEXCH =        8
   RHO(1)=    0.500       N(1)  =     2000
   RHO(2)=  100.500       N(2)  =     4000

 VTST: version 3.1, (03/28/14)

 CHAIN: initializing optimizer
 
 OPT: Using VASP Conjugate-Gradient optimizer
 CHAIN: Read ICHAIN            0
 
 POSCAR: Mo  O Li                                
  positions in cartesian coordinates
  No initial velocities read in
 


--------------------------------------------------------------------------------------------------------


 ion  position               nearest neighbor table
   1  0.244  0.498  0.503-   9 1.95   5 2.01   7 2.04  10 2.09   8 2.09  12 2.12   3 2.45  13 2.52
                             3 3.06
   2  0.735  0.005  0.986-  11 2.00   9 2.00   7 2.01  10 2.03   6 2.10   8 2.11   4 2.46  13 2.91
                            13 2.94   4 3.07
   3  0.795  0.503  0.496-  11 1.95   7 2.01   5 2.04  12 2.09   6 2.09  10 2.12   1 2.45  13 2.52
                             1 3.06
   4  0.304  0.995  0.013-   9 2.00  11 2.00   5 2.01  12 2.04   8 2.10   6 2.11   2 2.46  13 2.89
                            13 2.93   2 3.07
   5  0.143  0.299  0.752-   4 2.01   1 2.01   3 2.04  13 2.08
   6  0.918  0.809  0.782-  13 1.88   3 2.09   2 2.10   4 2.11
   7  0.896  0.701  0.248-   2 2.01   3 2.01   1 2.04  13 2.10
   8  0.121  0.191  0.217-  13 1.88   1 2.09   4 2.10   2 2.11
   9  0.392  0.794  0.758-   1 1.95   4 2.00   2 2.00
  10  0.628  0.315  0.721-   2 2.03   1 2.09   3 2.12  13 2.19
  11  0.647  0.207  0.241-   3 1.95   2 2.00   4 2.00
  12  0.410  0.686  0.278-   4 2.04   3 2.09   1 2.12  13 2.17
  13  0.022  0.500  0.000-   6 1.88   8 1.88   5 2.08   7 2.10  12 2.17  10 2.19   1 2.52   3 2.52
                             4 2.89   2 2.91   4 2.93   2 2.94
 
  LATTYP: Found a triclinic cell.
 ALAT       =    11.4535022513
 B/A-ratio  =     0.4331812930
 C/A-ratio  =     0.8467466440
 COS(alpha) =     0.0008094870
 COS(beta)  =     0.4348381309
 COS(gamma) =     0.8658875480
  
  Lattice vectors:
  
 A1 = (  -2.7466941143,  -9.9187829713,  -5.0255476947)
 A2 = (  -0.0062254229,  -4.9614367722,   0.0047112820)
 A3 = (  -8.2507585448,  -0.0023379460,  -5.0970917470)


Analysis of symmetry for initial positions (statically):
=====================================================================
 Subroutine PRICEL returns:
 Original cell was already a primitive cell.
 

 Routine SETGRP: Setting up the symmetry group for a 
 triclinic supercell.


 Subroutine GETGRP returns: Found  1 space group operations
 (whereof  1 operations were pure point group operations)
 out of a pool of  2 trial point group operations.


The static configuration has the point symmetry C_1 .


Analysis of symmetry for dynamics (positions and initial velocities):
=====================================================================
 Subroutine PRICEL returns:
 Original cell was already a primitive cell.
 

 Routine SETGRP: Setting up the symmetry group for a 
 triclinic supercell.


 Subroutine GETGRP returns: Found  1 space group operations
 (whereof  1 operations were pure point group operations)
 out of a pool of  2 trial point group operations.


The dynamic configuration has the point symmetry C_1 .


Analysis of structural, dynamic, and magnetic symmetry:
=====================================================================
 Subroutine PRICEL returns:
 Original cell was already a primitive cell.
 

 Routine SETGRP: Setting up the symmetry group for a 
 triclinic supercell.


 Subroutine GETGRP returns: Found  1 space group operations
 (whereof  1 operations were pure point group operations)
 out of a pool of  2 trial point group operations.


The magnetic configuration has the point symmetry C_1 .


 Subroutine INISYM returns: Found  1 space group operations
 (whereof  1 operations are pure point group operations),
 and found     1 'primitive' translations

 
 
 KPOINTS: KPOINTS created by Atomic Simulation Env

Automatic generation of k-mesh.
Space group operators:
 irot       det(A)        alpha          n_x          n_y          n_z        tau_x        tau_y        tau_z
    1     1.000000     0.000000     1.000000     0.000000     0.000000     0.000000     0.000000     0.000000
 
 Subroutine IBZKPT returns following result:
 ===========================================
 
 Found    172 irreducible k-points:
 
 Following reciprocal coordinates:
            Coordinates               Weight
  0.000000  0.000000  0.000000      1.000000
  0.142857  0.000000  0.000000      2.000000
  0.285714  0.000000  0.000000      2.000000
  0.428571  0.000000  0.000000      2.000000
 -0.000000  0.142857  0.000000      2.000000
  0.142857  0.142857  0.000000      2.000000
  0.285714  0.142857  0.000000      2.000000
  0.428571  0.142857  0.000000      2.000000
 -0.428571  0.142857 -0.000000      2.000000
 -0.285714  0.142857  0.000000      2.000000
 -0.142857  0.142857 -0.000000      2.000000
  0.000000  0.285714  0.000000      2.000000
  0.142857  0.285714  0.000000      2.000000
  0.285714  0.285714 -0.000000      2.000000
  0.428571  0.285714  0.000000      2.000000
 -0.428571  0.285714 -0.000000      2.000000
 -0.285714  0.285714  0.000000      2.000000
 -0.142857  0.285714 -0.000000      2.000000
 -0.000000  0.428571  0.000000      2.000000
  0.142857  0.428571  0.000000      2.000000
  0.285714  0.428571 -0.000000      2.000000
  0.428571  0.428571  0.000000      2.000000
 -0.428571  0.428571  0.000000      2.000000
 -0.285714  0.428571  0.000000      2.000000
 -0.142857  0.428571 -0.000000      2.000000
 -0.000000  0.000000  0.142857      2.000000
  0.142857 -0.000000  0.142857      2.000000
  0.285714  0.000000  0.142857      2.000000
  0.428571  0.000000  0.142857      2.000000
 -0.428571 -0.000000  0.142857      2.000000
 -0.285714 -0.000000  0.142857      2.000000
 -0.142857 -0.000000  0.142857      2.000000
 -0.000000  0.142857  0.142857      2.000000
  0.142857  0.142857  0.142857      2.000000
  0.285714  0.142857  0.142857      2.000000
  0.428571  0.142857  0.142857      2.000000
 -0.428571  0.142857  0.142857      2.000000
 -0.285714  0.142857  0.142857      2.000000
 -0.142857  0.142857  0.142857      2.000000
 -0.000000  0.285714  0.142857      2.000000
  0.142857  0.285714  0.142857      2.000000
  0.285714  0.285714  0.142857      2.000000
  0.428571  0.285714  0.142857      2.000000
 -0.428571  0.285714  0.142857      2.000000
 -0.285714  0.285714  0.142857      2.000000
 -0.142857  0.285714  0.142857      2.000000
 -0.000000  0.428571  0.142857      2.000000
  0.142857  0.428571  0.142857      2.000000
  0.285714  0.428571  0.142857      2.000000
  0.428571  0.428571  0.142857      2.000000
 -0.428571  0.428571  0.142857      2.000000
 -0.285714  0.428571  0.142857      2.000000
 -0.142857  0.428571  0.142857      2.000000
 -0.000000 -0.428571  0.142857      2.000000
  0.142857 -0.428571  0.142857      2.000000
  0.285714 -0.428571  0.142857      2.000000
  0.428571 -0.428571  0.142857      2.000000
 -0.428571 -0.428571  0.142857      2.000000
 -0.285714 -0.428571  0.142857      2.000000
 -0.142857 -0.428571  0.142857      2.000000
 -0.000000 -0.285714  0.142857      2.000000
  0.142857 -0.285714  0.142857      2.000000
  0.285714 -0.285714  0.142857      2.000000
  0.428571 -0.285714  0.142857      2.000000
 -0.428571 -0.285714  0.142857      2.000000
 -0.285714 -0.285714  0.142857      2.000000
 -0.142857 -0.285714  0.142857      2.000000
 -0.000000 -0.142857  0.142857      2.000000
  0.142857 -0.142857  0.142857      2.000000
  0.285714 -0.142857  0.142857      2.000000
  0.428571 -0.142857  0.142857      2.000000
 -0.428571 -0.142857  0.142857      2.000000
 -0.285714 -0.142857  0.142857      2.000000
 -0.142857 -0.142857  0.142857      2.000000
 -0.000000  0.000000  0.285714      2.000000
  0.142857  0.000000  0.285714      2.000000
  0.285714  0.000000  0.285714      2.000000
  0.428571  0.000000  0.285714      2.000000
 -0.428571 -0.000000  0.285714      2.000000
 -0.285714 -0.000000  0.285714      2.000000
 -0.142857 -0.000000  0.285714      2.000000
 -0.000000  0.142857  0.285714      2.000000
  0.142857  0.142857  0.285714      2.000000
  0.285714  0.142857  0.285714      2.000000
  0.428571  0.142857  0.285714      2.000000
 -0.428571  0.142857  0.285714      2.000000
 -0.285714  0.142857  0.285714      2.000000
 -0.142857  0.142857  0.285714      2.000000
 -0.000000  0.285714  0.285714      2.000000
  0.142857  0.285714  0.285714      2.000000
  0.285714  0.285714  0.285714      2.000000
  0.428571  0.285714  0.285714      2.000000
 -0.428571  0.285714  0.285714      2.000000
 -0.285714  0.285714  0.285714      2.000000
 -0.142857  0.285714  0.285714      2.000000
 -0.000000  0.428571  0.285714      2.000000
  0.142857  0.428571  0.285714      2.000000
  0.285714  0.428571  0.285714      2.000000
  0.428571  0.428571  0.285714      2.000000
 -0.428571  0.428571  0.285714      2.000000
 -0.285714  0.428571  0.285714      2.000000
 -0.142857  0.428571  0.285714      2.000000
 -0.000000 -0.428571  0.285714      2.000000
  0.142857 -0.428571  0.285714      2.000000
  0.285714 -0.428571  0.285714      2.000000
  0.428571 -0.428571  0.285714      2.000000
 -0.428571 -0.428571  0.285714      2.000000
 -0.285714 -0.428571  0.285714      2.000000
 -0.142857 -0.428571  0.285714      2.000000
 -0.000000 -0.285714  0.285714      2.000000
  0.142857 -0.285714  0.285714      2.000000
  0.285714 -0.285714  0.285714      2.000000
  0.428571 -0.285714  0.285714      2.000000
 -0.428571 -0.285714  0.285714      2.000000
 -0.285714 -0.285714  0.285714      2.000000
 -0.142857 -0.285714  0.285714      2.000000
 -0.000000 -0.142857  0.285714      2.000000
  0.142857 -0.142857  0.285714      2.000000
  0.285714 -0.142857  0.285714      2.000000
  0.428571 -0.142857  0.285714      2.000000
 -0.428571 -0.142857  0.285714      2.000000
 -0.285714 -0.142857  0.285714      2.000000
 -0.142857 -0.142857  0.285714      2.000000
 -0.000000  0.000000  0.428571      2.000000
  0.142857  0.000000  0.428571      2.000000
  0.285714  0.000000  0.428571      2.000000
  0.428571  0.000000  0.428571      2.000000
 -0.428571 -0.000000  0.428571      2.000000
 -0.285714  0.000000  0.428571      2.000000
 -0.142857 -0.000000  0.428571      2.000000
 -0.000000  0.142857  0.428571      2.000000
  0.142857  0.142857  0.428571      2.000000
  0.285714  0.142857  0.428571      2.000000
  0.428571  0.142857  0.428571      2.000000
 -0.428571  0.142857  0.428571      2.000000
 -0.285714  0.142857  0.428571      2.000000
 -0.142857  0.142857  0.428571      2.000000
 -0.000000  0.285714  0.428571      2.000000
  0.142857  0.285714  0.428571      2.000000
  0.285714  0.285714  0.428571      2.000000
  0.428571  0.285714  0.428571      2.000000
 -0.428571  0.285714  0.428571      2.000000
 -0.285714  0.285714  0.428571      2.000000
 -0.142857  0.285714  0.428571      2.000000
 -0.000000  0.428571  0.428571      2.000000
  0.142857  0.428571  0.428571      2.000000
  0.285714  0.428571  0.428571      2.000000
  0.428571  0.428571  0.428571      2.000000
 -0.428571  0.428571  0.428571      2.000000
 -0.285714  0.428571  0.428571      2.000000
 -0.142857  0.428571  0.428571      2.000000
 -0.000000 -0.428571  0.428571      2.000000
  0.142857 -0.428571  0.428571      2.000000
  0.285714 -0.428571  0.428571      2.000000
  0.428571 -0.428571  0.428571      2.000000
 -0.428571 -0.428571  0.428571      2.000000
 -0.285714 -0.428571  0.428571      2.000000
 -0.142857 -0.428571  0.428571      2.000000
 -0.000000 -0.285714  0.428571      2.000000
  0.142857 -0.285714  0.428571      2.000000
  0.285714 -0.285714  0.428571      2.000000
  0.428571 -0.285714  0.428571      2.000000
 -0.428571 -0.285714  0.428571      2.000000
 -0.285714 -0.285714  0.428571      2.000000
 -0.142857 -0.285714  0.428571      2.000000
 -0.000000 -0.142857  0.428571      2.000000
  0.142857 -0.142857  0.428571      2.000000
  0.285714 -0.142857  0.428571      2.000000
  0.428571 -0.142857  0.428571      2.000000
 -0.428571 -0.142857  0.428571      2.000000
 -0.285714 -0.142857  0.428571      2.000000
 -0.142857 -0.142857  0.428571      2.000000
 
 Following cartesian coordinates:
            Coordinates               Weight
  0.000000  0.000000  0.000000      1.000000
  0.025734 -0.000019  0.014398      2.000000
  0.051468 -0.000037  0.028796      2.000000
  0.077202 -0.000056  0.043194      2.000000
 -0.000034  0.028794  0.000042      2.000000
  0.025700  0.028775  0.014440      2.000000
  0.051434  0.028756  0.028838      2.000000
  0.077168  0.028738  0.043236      2.000000
 -0.077236  0.028849 -0.043152      2.000000
 -0.051502  0.028831 -0.028754      2.000000
 -0.025768  0.028812 -0.014356      2.000000
 -0.000068  0.057587  0.000084      2.000000
  0.025666  0.057569  0.014482      2.000000
  0.051400  0.057550  0.028880      2.000000
  0.077134  0.057531  0.043278      2.000000
 -0.077271  0.057643 -0.043110      2.000000
 -0.051536  0.057624 -0.028712      2.000000
 -0.025802  0.057606 -0.014314      2.000000
 -0.000102  0.086381  0.000126      2.000000
  0.025632  0.086362  0.014524      2.000000
  0.051366  0.086344  0.028922      2.000000
  0.077100  0.086325  0.043320      2.000000
 -0.077305  0.086437 -0.043068      2.000000
 -0.051570  0.086418 -0.028670      2.000000
 -0.025836  0.086399 -0.014272      2.000000
 -0.000322  0.000028  0.028548      2.000000
  0.025413  0.000009  0.042946      2.000000
  0.051147 -0.000010  0.057344      2.000000
  0.076881 -0.000028  0.071742      2.000000
 -0.077524  0.000083 -0.014646      2.000000
 -0.051790  0.000065 -0.000248      2.000000
 -0.026056  0.000046  0.014150      2.000000
 -0.000356  0.028821  0.028589      2.000000
  0.025379  0.028802  0.042988      2.000000
  0.051113  0.028784  0.057386      2.000000
  0.076847  0.028765  0.071784      2.000000
 -0.077558  0.028877 -0.014605      2.000000
 -0.051824  0.028858 -0.000207      2.000000
 -0.026090  0.028840  0.014191      2.000000
 -0.000390  0.057615  0.028631      2.000000
  0.025345  0.057596  0.043029      2.000000
  0.051079  0.057577  0.057427      2.000000
  0.076813  0.057559  0.071825      2.000000
 -0.077592  0.057671 -0.014563      2.000000
 -0.051858  0.057652 -0.000165      2.000000
 -0.026124  0.057633  0.014233      2.000000
 -0.000424  0.086408  0.028673      2.000000
  0.025311  0.086390  0.043071      2.000000
  0.051045  0.086371  0.057469      2.000000
  0.076779  0.086352  0.071867      2.000000
 -0.077626  0.086464 -0.014521      2.000000
 -0.051892  0.086446 -0.000123      2.000000
 -0.026158  0.086427  0.014275      2.000000
 -0.000219 -0.086353  0.028422      2.000000
  0.025515 -0.086372  0.042820      2.000000
  0.051249 -0.086390  0.057218      2.000000
  0.076983 -0.086409  0.071616      2.000000
 -0.077422 -0.086297 -0.014772      2.000000
 -0.051688 -0.086316 -0.000374      2.000000
 -0.025954 -0.086335  0.014024      2.000000
 -0.000253 -0.057560  0.028464      2.000000
  0.025481 -0.057578  0.042862      2.000000
  0.051215 -0.057597  0.057260      2.000000
  0.076949 -0.057616  0.071658      2.000000
 -0.077456 -0.057504 -0.014730      2.000000
 -0.051722 -0.057522 -0.000332      2.000000
 -0.025988 -0.057541  0.014066      2.000000
 -0.000287 -0.028766  0.028506      2.000000
  0.025447 -0.028785  0.042904      2.000000
  0.051181 -0.028803  0.057302      2.000000
  0.076915 -0.028822  0.071700      2.000000
 -0.077490 -0.028710 -0.014688      2.000000
 -0.051756 -0.028729 -0.000290      2.000000
 -0.026022 -0.028747  0.014108      2.000000
 -0.000643  0.000055  0.057095      2.000000
  0.025091  0.000036  0.071493      2.000000
  0.050825  0.000018  0.085891      2.000000
  0.076559 -0.000001  0.100289      2.000000
 -0.077845  0.000111  0.013901      2.000000
 -0.052111  0.000092  0.028299      2.000000
 -0.026377  0.000074  0.042697      2.000000
 -0.000677  0.028849  0.057137      2.000000
  0.025057  0.028830  0.071535      2.000000
  0.050791  0.028811  0.085933      2.000000
  0.076525  0.028793  0.100331      2.000000
 -0.077879  0.028904  0.013943      2.000000
 -0.052145  0.028886  0.028341      2.000000
 -0.026411  0.028867  0.042739      2.000000
 -0.000711  0.057642  0.057179      2.000000
  0.025023  0.057624  0.071577      2.000000
  0.050757  0.057605  0.085975      2.000000
  0.076491  0.057586  0.100373      2.000000
 -0.077914  0.057698  0.013985      2.000000
 -0.052179  0.057679  0.028383      2.000000
 -0.026445  0.057661  0.042781      2.000000
 -0.000745  0.086436  0.057221      2.000000
  0.024989  0.086417  0.071619      2.000000
  0.050723  0.086399  0.086017      2.000000
  0.076457  0.086380  0.100415      2.000000
 -0.077948  0.086492  0.014027      2.000000
 -0.052213  0.086473  0.028425      2.000000
 -0.026479  0.086454  0.042823      2.000000
 -0.000541 -0.086326  0.056970      2.000000
  0.025193 -0.086344  0.071368      2.000000
  0.050927 -0.086363  0.085766      2.000000
  0.076662 -0.086382  0.100164      2.000000
 -0.077743 -0.086270  0.013776      2.000000
 -0.052009 -0.086288  0.028174      2.000000
 -0.026275 -0.086307  0.042572      2.000000
 -0.000575 -0.057532  0.057011      2.000000
  0.025159 -0.057551  0.071409      2.000000
  0.050893 -0.057569  0.085808      2.000000
  0.076627 -0.057588  0.100206      2.000000
 -0.077777 -0.057476  0.013817      2.000000
 -0.052043 -0.057495  0.028215      2.000000
 -0.026309 -0.057514  0.042613      2.000000
 -0.000609 -0.028739  0.057053      2.000000
  0.025125 -0.028757  0.071451      2.000000
  0.050859 -0.028776  0.085849      2.000000
  0.076593 -0.028794  0.100247      2.000000
 -0.077811 -0.028683  0.013859      2.000000
 -0.052077 -0.028701  0.028257      2.000000
 -0.026343 -0.028720  0.042655      2.000000
 -0.000965  0.000083  0.085643      2.000000
  0.024770  0.000064  0.100041      2.000000
  0.050504  0.000045  0.114439      2.000000
  0.076238  0.000027  0.128837      2.000000
 -0.078167  0.000138  0.042449      2.000000
 -0.052433  0.000120  0.056847      2.000000
 -0.026699  0.000101  0.071245      2.000000
 -0.000999  0.028876  0.085685      2.000000
  0.024736  0.028858  0.100083      2.000000
  0.050470  0.028839  0.114481      2.000000
  0.076204  0.028820  0.128879      2.000000
 -0.078201  0.028932  0.042491      2.000000
 -0.052467  0.028913  0.056889      2.000000
 -0.026733  0.028895  0.071287      2.000000
 -0.001033  0.057670  0.085727      2.000000
  0.024702  0.057651  0.100125      2.000000
  0.050436  0.057632  0.114523      2.000000
  0.076170  0.057614  0.128921      2.000000
 -0.078235  0.057726  0.042532      2.000000
 -0.052501  0.057707  0.056930      2.000000
 -0.026767  0.057688  0.071329      2.000000
 -0.001067  0.086463  0.085768      2.000000
  0.024668  0.086445  0.100166      2.000000
  0.050402  0.086426  0.114564      2.000000
  0.076136  0.086407  0.128963      2.000000
 -0.078269  0.086519  0.042574      2.000000
 -0.052535  0.086501  0.056972      2.000000
 -0.026801  0.086482  0.071370      2.000000
 -0.000862 -0.086298  0.085517      2.000000
  0.024872 -0.086317  0.099915      2.000000
  0.050606 -0.086335  0.114313      2.000000
  0.076340 -0.086354  0.128711      2.000000
 -0.078065 -0.086242  0.042323      2.000000
 -0.052331 -0.086261  0.056721      2.000000
 -0.026597 -0.086280  0.071119      2.000000
 -0.000896 -0.057505  0.085559      2.000000
  0.024838 -0.057523  0.099957      2.000000
  0.050572 -0.057542  0.114355      2.000000
  0.076306 -0.057560  0.128753      2.000000
 -0.078099 -0.057449  0.042365      2.000000
 -0.052365 -0.057467  0.056763      2.000000
 -0.026631 -0.057486  0.071161      2.000000
 -0.000930 -0.028711  0.085601      2.000000
  0.024804 -0.028730  0.099999      2.000000
  0.050538 -0.028748  0.114397      2.000000
  0.076272 -0.028767  0.128795      2.000000
 -0.078133 -0.028655  0.042407      2.000000
 -0.052399 -0.028674  0.056805      2.000000
 -0.026665 -0.028692  0.071203      2.000000
 


--------------------------------------------------------------------------------------------------------




 Dimension of arrays:
   k-points           NKPTS =    172   k-points in BZ     NKDIM =    172   number of bands    NBANDS=     56
   number of dos      NEDOS =    301   number of ions     NIONS =     13
   non local maximal  LDIM  =      6   non local SUM 2l+1 LMDIM =     18
   total plane-waves  NPLWV =  38880
   max r-space proj   IRMAX =   4566   max aug-charges    IRDMAX=  18423
   dimension x,y,z NGX =    36 NGY =   30 NGZ =   36
   dimension x,y,z NGXF=    72 NGYF=   60 NGZF=   72
   support grid    NGXF=    72 NGYF=   60 NGZF=   72
   ions per type =               4   8   1
 NGX,Y,Z   is equivalent  to a cutoff of  10.85, 10.05, 10.50 a.u.
 NGXF,Y,Z  is equivalent  to a cutoff of  21.70, 20.10, 21.01 a.u.


 I would recommend the setting:
   dimension x,y,z NGX =    33 NGY =   30 NGZ =   34
 SYSTEM =  unknown system                          
 POSCAR =  Mo  O Li                                

 Startparameter for this run:
   NWRITE =      2    write-flag & timer
   PREC   = normal    normal or accurate (medium, high low for compatibility)
   ISTART =      0    job   : 0-new  1-cont  2-samecut
   ICHARG =      2    charge: 1-file 2-atom 10-const
   ISPIN  =      2    spin polarized calculation?
   LNONCOLLINEAR =      F non collinear calculations
   LSORBIT =      F    spin-orbit coupling
   INIWAV =      1    electr: 0-lowe 1-rand  2-diag
   LASPH  =      F    aspherical Exc in radial PAW
   METAGGA=      F    non-selfconsistent MetaGGA calc.

 Electronic Relaxation 1
   ENCUT  =  600.0 eV  44.10 Ry    6.64 a.u.  11.02  9.91 11.38*2*pi/ulx,y,z
   ENINI  =  600.0     initial cutoff
   ENAUG  =  605.4 eV  augmentation charge cutoff
   NELM   =    500;   NELMIN=  2; NELMDL=  0     # of ELM steps 
   EDIFF  = 0.1E-05   stopping-criterion for ELM
   LREAL  =      T    real-space projection
   NLSPLINE    = F    spline interpolate recip. space projectors
   LCOMPAT=      F    compatible to vasp.4.4
   GGA_COMPAT  = T    GGA compatible to vasp.4.4-vasp.4.6
   LMAXPAW     = -100 max onsite density
   LMAXMIX     =    2 max onsite mixed and CHGCAR
   VOSKOWN=      0    Vosko Wilk Nusair interpolation
   ROPT   =   -0.00050  -0.00050  -0.00050
 Ionic relaxation
   EDIFFG = -.1E-01   stopping-criterion for IOM
   NSW    =    500    number of steps for IOM
   NBLOCK =      1;   KBLOCK =    500    inner block; outer block 
   IBRION =      2    ionic relax: 0-MD 1-quasi-New 2-CG
   NFREE  =      1    steps in history (QN), initial steepest desc. (CG)
   ISIF   =      3    stress and relaxation
   IWAVPR =     11    prediction:  0-non 1-charg 2-wave 3-comb
   ISYM   =      2    0-nonsym 1-usesym 2-fastsym
   LCORR  =      T    Harris-Foulkes like correction to forces

   POTIM  = 0.5000    time-step for ionic-motion
   TEIN   =    0.0    initial temperature
   TEBEG  =    0.0;   TEEND  =   0.0 temperature during run
   SMASS  =  -3.00    Nose mass-parameter (am)
   estimated Nose-frequenzy (Omega)   =  0.10E-29 period in steps =****** mass=  -0.696E-27a.u.
   SCALEE = 1.0000    scale energy and forces
   NPACO  =    256;   APACO  = 16.0  distance and # of slots for P.C.
   PSTRESS=    0.0 pullay stress

  Mass of Ions in am
   POMASS =  95.94 16.00  7.01
  Ionic Valenz
   ZVAL   =   6.00  6.00  1.00
  Atomic Wigner-Seitz radii
   RWIGS  =  -1.00 -1.00 -1.00
  virtual crystal weights 
   VCA    =   1.00  1.00  1.00
   NELECT =      73.0000    total number of electrons
   NUPDOWN=      -1.0000    fix difference up-down

 DOS related values:
   EMIN   =  10.00;   EMAX   =-10.00  energy-range for DOS
   EFERMI =   0.00
   ISMEAR =     0;   SIGMA  =   0.03  broadening in eV -4-tet -1-fermi 0-gaus

 Electronic relaxation 2 (details)
   IALGO  =     48    algorithm
   LDIAG  =      T    sub-space diagonalisation (order eigenvalues)
   LSUBROT=      F    optimize rotation matrix (better conditioning)
   TURBO    =      0    0=normal 1=particle mesh
   IRESTART =      0    0=no restart 2=restart with 2 vectors
   NREBOOT  =      0    no. of reboots
   NMIN     =      0    reboot dimension
   EREF     =   0.00    reference energy to select bands
   IMIX   =      4    mixing-type and parameters
     AMIX     =   0.40;   BMIX     =  1.00
     AMIX_MAG =   1.60;   BMIX_MAG =  1.00
     AMIN     =   0.10
     WC   =   100.;   INIMIX=   1;  MIXPRE=   1;  MAXMIX= -45

 Intra band minimization:
   WEIMIN = 0.0010     energy-eigenvalue tresh-hold
   EBREAK =  0.45E-08  absolut break condition
   DEPER  =   0.30     relativ break condition  

   TIME   =   0.40     timestep for ELM

  volume/ion in A,a.u.               =      10.54        71.10
  Fermi-wavevector in a.u.,A,eV,Ry     =   1.327337  2.508303 23.971056  1.761823
  Thomas-Fermi vector in A             =   2.456657
 
 Write flags
   LWAVE  =      F    write WAVECAR
   LCHARG =      F    write CHGCAR
   LVTOT  =      F    write LOCPOT, total local potential
   LVHAR  =      F    write LOCPOT, Hartree potential only
   LELF   =      F    write electronic localiz. function (ELF)
   LORBIT =      0    0 simple, 1 ext, 2 COOP (PROOUT)


 Dipole corrections
   LMONO  =      F    monopole corrections only (constant potential shift)
   LDIPOL =      F    correct potential (dipole corrections)
   IDIPOL =      0    1-x, 2-y, 3-z, 4-all directions 
   EPSILON=  1.0000000 bulk dielectric constant

 Exchange correlation treatment:
   GGA     =    PE    GGA type
   LEXCH   =     8    internal setting for exchange type
   VOSKOWN=      0    Vosko Wilk Nusair interpolation
   LHFCALC =     F    Hartree Fock is set to
   LHFONE  =     F    Hartree Fock one center treatment
   AEXX    =    0.0000 exact exchange contribution

 Linear response parameters
   LEPSILON=     F    determine dielectric tensor
   LRPA    =     F    only Hartree local field effects (RPA)
   LNABLA  =     F    use nabla operator in PAW spheres
   LVEL    =     F    velocity operator in full k-point grid
   LINTERFAST=   F  fast interpolation
   KINTER  =     0    interpolate to denser k-point grid
   CSHIFT  =0.1000    complex shift for real part using Kramers Kronig
   OMEGAMAX=  -1.0    maximum frequency
   DEG_THRESHOLD= 0.2000000E-02 threshold for treating states as degnerate
   RTIME   =    0.100 relaxation time in fs

 Orbital magnetization related:
   ORBITALMAG=     F  switch on orbital magnetization
   LCHIMAG   =     F  perturbation theory with respect to B field
   DQ        =  0.001000  dq finite difference perturbation B field



--------------------------------------------------------------------------------------------------------


 conjugate gradient relaxation of ions
 charge density and potential will be updated during run
 spin polarized calculation
 RMM-DIIS sequential band-by-band
 perform sub-space diagonalisation
    before iterative eigenvector-optimisation
 modified Broyden-mixing scheme, WC =      100.0
 initial mixing is a Kerker type mixing with AMIX =  0.4000 and BMIX =      1.0000
 Hartree-type preconditioning will be used
 using additional bands           19
 real space projection scheme for non local part
 use partial core corrections
 calculate Harris-corrections to forces 
   (improved forces if not selfconsistent)
 use gradient corrections 
 use of overlap-Matrix (Vanderbilt PP)
 Gauss-broadening in eV      SIGMA  =   0.03


--------------------------------------------------------------------------------------------------------


  energy-cutoff  :      600.00
  volume of cell :      136.96
      direct lattice vectors                 reciprocal lattice vectors
     5.516515276  0.006428519  0.062121488     0.180139055 -0.000130327  0.100786190
     0.006225423  4.961436772 -0.004711282    -0.000238177  0.201555096  0.000293092
    -2.782272008 -0.010519092  4.972848770    -0.002250547  0.000192582  0.199833222

  length of vectors
     5.516868786  4.961442915  5.698278079     0.206416938  0.201555450  0.199845987


 
 k-points in units of 2pi/SCALE and weight: KPOINTS created by Atomic Simulation Env
   0.00000000  0.00000000  0.00000000       0.003
   0.02573415 -0.00001862  0.01439803       0.006
   0.05146830 -0.00003724  0.02879605       0.006
   0.07720245 -0.00005585  0.04319408       0.006
  -0.00003403  0.02879359  0.00004187       0.006
   0.02570013  0.02877497  0.01443990       0.006
   0.05143428  0.02875635  0.02883792       0.006
   0.07716843  0.02873773  0.04323595       0.006
  -0.07723648  0.02884944 -0.04315221       0.006
  -0.05150233  0.02883082 -0.02875418       0.006
  -0.02576818  0.02881220 -0.01435616       0.006
  -0.00006805  0.05758717  0.00008374       0.006
   0.02566610  0.05756855  0.01448177       0.006
   0.05140025  0.05754993  0.02887979       0.006
   0.07713440  0.05753132  0.04327782       0.006
  -0.07727050  0.05764302 -0.04311034       0.006
  -0.05153635  0.05762441 -0.02871231       0.006
  -0.02580220  0.05760579 -0.01431429       0.006
  -0.00010208  0.08638076  0.00012561       0.006
   0.02563207  0.08636214  0.01452364       0.006
   0.05136623  0.08634352  0.02892167       0.006
   0.07710038  0.08632490  0.04331969       0.006
  -0.07730453  0.08643661 -0.04306847       0.006
  -0.05157038  0.08641799 -0.02867044       0.006
  -0.02583623  0.08639937 -0.01427242       0.006
  -0.00032151  0.00002751  0.02854760       0.006
   0.02541264  0.00000889  0.04294563       0.006
   0.05114679 -0.00000972  0.05734366       0.006
   0.07688095 -0.00002834  0.07174168       0.006
  -0.07752396  0.00008337 -0.01464648       0.006
  -0.05178981  0.00006475 -0.00024845       0.006
  -0.02605566  0.00004613  0.01414958       0.006
  -0.00035553  0.02882110  0.02858947       0.006
   0.02537862  0.02880248  0.04298750       0.006
   0.05111277  0.02878386  0.05738553       0.006
   0.07684692  0.02876524  0.07178355       0.006
  -0.07755798  0.02887695 -0.01460461       0.006
  -0.05182383  0.02885833 -0.00020658       0.006
  -0.02608968  0.02883971  0.01419145       0.006
  -0.00038956  0.05761468  0.02863134       0.006
   0.02534459  0.05759606  0.04302937       0.006
   0.05107874  0.05757745  0.05742740       0.006
   0.07681289  0.05755883  0.07182543       0.006
  -0.07759201  0.05767054 -0.01456274       0.006
  -0.05185786  0.05765192 -0.00016471       0.006
  -0.02612371  0.05763330  0.01423332       0.006
  -0.00042358  0.08640827  0.02867321       0.006
   0.02531057  0.08638965  0.04307124       0.006
   0.05104472  0.08637103  0.05746927       0.006
   0.07677887  0.08635241  0.07186730       0.006
  -0.07762603  0.08646412 -0.01452087       0.006
  -0.05189188  0.08644550 -0.00012284       0.006
  -0.02615773  0.08642689  0.01427519       0.006
  -0.00021943 -0.08635324  0.02842199       0.006
   0.02551472 -0.08637186  0.04282002       0.006
   0.05124887 -0.08639048  0.05721805       0.006
   0.07698302 -0.08640910  0.07161607       0.006
  -0.07742188 -0.08629739 -0.01477209       0.006
  -0.05168773 -0.08631601 -0.00037406       0.006
  -0.02595358 -0.08633463  0.01402397       0.006
  -0.00025346 -0.05755966  0.02846386       0.006
   0.02548069 -0.05757828  0.04286189       0.006
   0.05121485 -0.05759689  0.05725992       0.006
   0.07694900 -0.05761551  0.07165794       0.006
  -0.07745591 -0.05750380 -0.01473022       0.006
  -0.05172176 -0.05752242 -0.00033219       0.006
  -0.02598761 -0.05754104  0.01406584       0.006
  -0.00028748 -0.02876607  0.02850573       0.006
   0.02544667 -0.02878469  0.04290376       0.006
   0.05118082 -0.02880331  0.05730179       0.006
   0.07691497 -0.02882193  0.07169981       0.006
  -0.07748993 -0.02871022 -0.01468835       0.006
  -0.05175578 -0.02872884 -0.00029032       0.006
  -0.02602163 -0.02874746  0.01410771       0.006
  -0.00064301  0.00005502  0.05709521       0.006
   0.02509114  0.00003641  0.07149323       0.006
   0.05082529  0.00001779  0.08589126       0.006
   0.07655944 -0.00000083  0.10028929       0.006
  -0.07784547  0.00011088  0.01390112       0.006
  -0.05211131  0.00009226  0.02829915       0.006
  -0.02637716  0.00007364  0.04269718       0.006
  -0.00067704  0.02884861  0.05713708       0.006
   0.02505711  0.02882999  0.07153510       0.006
   0.05079126  0.02881137  0.08593313       0.006
   0.07652541  0.02879275  0.10033116       0.006
  -0.07787949  0.02890446  0.01394300       0.006
  -0.05214534  0.02888584  0.02834102       0.006
  -0.02641119  0.02886723  0.04273905       0.006
  -0.00071106  0.05764219  0.05717895       0.006
   0.02502309  0.05762358  0.07157697       0.006
   0.05075724  0.05760496  0.08597500       0.006
   0.07649139  0.05758634  0.10037303       0.006
  -0.07791352  0.05769805  0.01398487       0.006
  -0.05217937  0.05767943  0.02838289       0.006
  -0.02644521  0.05766081  0.04278092       0.006
  -0.00074509  0.08643578  0.05722082       0.006
   0.02498906  0.08641716  0.07161884       0.006
   0.05072321  0.08639854  0.08601687       0.006
   0.07645736  0.08637992  0.10041490       0.006
  -0.07794754  0.08649163  0.01402674       0.006
  -0.05221339  0.08647301  0.02842476       0.006
  -0.02647924  0.08645440  0.04282279       0.006
  -0.00054094 -0.08632573  0.05696960       0.006
   0.02519321 -0.08634435  0.07136762       0.006
   0.05092736 -0.08636297  0.08576565       0.006
   0.07666151 -0.08638159  0.10016368       0.006
  -0.07774339 -0.08626988  0.01377551       0.006
  -0.05200924 -0.08628850  0.02817354       0.006
  -0.02627509 -0.08630711  0.04257157       0.006
  -0.00057496 -0.05753215  0.05701147       0.006
   0.02515919 -0.05755077  0.07140949       0.006
   0.05089334 -0.05756938  0.08580752       0.006
   0.07662749 -0.05758800  0.10020555       0.006
  -0.07777741 -0.05747629  0.01381738       0.006
  -0.05204326 -0.05749491  0.02821541       0.006
  -0.02630911 -0.05751353  0.04261344       0.006
  -0.00060899 -0.02873856  0.05705334       0.006
   0.02512516 -0.02875718  0.07145136       0.006
   0.05085931 -0.02877580  0.08584939       0.006
   0.07659346 -0.02879442  0.10024742       0.006
  -0.07781144 -0.02868271  0.01385925       0.006
  -0.05207729 -0.02870133  0.02825728       0.006
  -0.02634314 -0.02871994  0.04265531       0.006
  -0.00096452  0.00008253  0.08564281       0.006
   0.02476963  0.00006392  0.10004084       0.006
   0.05050378  0.00004530  0.11443886       0.006
   0.07623793  0.00002668  0.12883689       0.006
  -0.07816697  0.00013839  0.04244873       0.006
  -0.05243282  0.00011977  0.05684676       0.006
  -0.02669867  0.00010115  0.07124478       0.006
  -0.00099855  0.02887612  0.08568468       0.006
   0.02473561  0.02885750  0.10008271       0.006
   0.05046976  0.02883888  0.11448073       0.006
   0.07620391  0.02882027  0.12887876       0.006
  -0.07820100  0.02893197  0.04249060       0.006
  -0.05246685  0.02891336  0.05688863       0.006
  -0.02673270  0.02889474  0.07128665       0.006
  -0.00103257  0.05766971  0.08572655       0.006
   0.02470158  0.05765109  0.10012458       0.006
   0.05043573  0.05763247  0.11452260       0.006
   0.07616988  0.05761385  0.12892063       0.006
  -0.07823502  0.05772556  0.04253247       0.006
  -0.05250087  0.05770694  0.05693050       0.006
  -0.02676672  0.05768832  0.07132852       0.006
  -0.00106660  0.08646329  0.08576842       0.006
   0.02466755  0.08644467  0.10016645       0.006
   0.05040171  0.08642605  0.11456447       0.006
   0.07613586  0.08640744  0.12896250       0.006
  -0.07826905  0.08651914  0.04257434       0.006
  -0.05253490  0.08650053  0.05697237       0.006
  -0.02680075  0.08648191  0.07137039       0.006
  -0.00086244 -0.08629822  0.08551720       0.006
   0.02487171 -0.08631684  0.09991523       0.006
   0.05060586 -0.08633546  0.11431325       0.006
   0.07634001 -0.08635407  0.12871128       0.006
  -0.07806490 -0.08624237  0.04232312       0.006
  -0.05233075 -0.08626098  0.05672114       0.006
  -0.02659659 -0.08627960  0.07111917       0.006
  -0.00089647 -0.05750464  0.08555907       0.006
   0.02483768 -0.05752325  0.09995710       0.006
   0.05057183 -0.05754187  0.11435512       0.006
   0.07630598 -0.05756049  0.12875315       0.006
  -0.07809892 -0.05744878  0.04236499       0.006
  -0.05236477 -0.05746740  0.05676301       0.006
  -0.02663062 -0.05748602  0.07116104       0.006
  -0.00093049 -0.02871105  0.08560094       0.006
   0.02480366 -0.02872967  0.09999897       0.006
   0.05053781 -0.02874829  0.11439699       0.006
   0.07627196 -0.02876690  0.12879502       0.006
  -0.07813295 -0.02865520  0.04240686       0.006
  -0.05239880 -0.02867381  0.05680488       0.006
  -0.02666465 -0.02869243  0.07120291       0.006
 
 k-points in reciprocal lattice and weights: KPOINTS created by Atomic Simulation Env
   0.00000000  0.00000000  0.00000000       0.003
   0.14285714  0.00000000  0.00000000       0.006
   0.28571429  0.00000000  0.00000000       0.006
   0.42857143  0.00000000  0.00000000       0.006
  -0.00000000  0.14285714  0.00000000       0.006
   0.14285714  0.14285714  0.00000000       0.006
   0.28571429  0.14285714  0.00000000       0.006
   0.42857143  0.14285714  0.00000000       0.006
  -0.42857143  0.14285714 -0.00000000       0.006
  -0.28571429  0.14285714  0.00000000       0.006
  -0.14285714  0.14285714 -0.00000000       0.006
   0.00000000  0.28571429  0.00000000       0.006
   0.14285714  0.28571429  0.00000000       0.006
   0.28571429  0.28571429 -0.00000000       0.006
   0.42857143  0.28571429  0.00000000       0.006
  -0.42857143  0.28571429 -0.00000000       0.006
  -0.28571429  0.28571429  0.00000000       0.006
  -0.14285714  0.28571429 -0.00000000       0.006
  -0.00000000  0.42857143  0.00000000       0.006
   0.14285714  0.42857143  0.00000000       0.006
   0.28571429  0.42857143 -0.00000000       0.006
   0.42857143  0.42857143  0.00000000       0.006
  -0.42857143  0.42857143  0.00000000       0.006
  -0.28571429  0.42857143  0.00000000       0.006
  -0.14285714  0.42857143 -0.00000000       0.006
  -0.00000000  0.00000000  0.14285714       0.006
   0.14285714 -0.00000000  0.14285714       0.006
   0.28571429  0.00000000  0.14285714       0.006
   0.42857143  0.00000000  0.14285714       0.006
  -0.42857143 -0.00000000  0.14285714       0.006
  -0.28571429 -0.00000000  0.14285714       0.006
  -0.14285714 -0.00000000  0.14285714       0.006
  -0.00000000  0.14285714  0.14285714       0.006
   0.14285714  0.14285714  0.14285714       0.006
   0.28571429  0.14285714  0.14285714       0.006
   0.42857143  0.14285714  0.14285714       0.006
  -0.42857143  0.14285714  0.14285714       0.006
  -0.28571429  0.14285714  0.14285714       0.006
  -0.14285714  0.14285714  0.14285714       0.006
  -0.00000000  0.28571429  0.14285714       0.006
   0.14285714  0.28571429  0.14285714       0.006
   0.28571429  0.28571429  0.14285714       0.006
   0.42857143  0.28571429  0.14285714       0.006
  -0.42857143  0.28571429  0.14285714       0.006
  -0.28571429  0.28571429  0.14285714       0.006
  -0.14285714  0.28571429  0.14285714       0.006
  -0.00000000  0.42857143  0.14285714       0.006
   0.14285714  0.42857143  0.14285714       0.006
   0.28571429  0.42857143  0.14285714       0.006
   0.42857143  0.42857143  0.14285714       0.006
  -0.42857143  0.42857143  0.14285714       0.006
  -0.28571429  0.42857143  0.14285714       0.006
  -0.14285714  0.42857143  0.14285714       0.006
  -0.00000000 -0.42857143  0.14285714       0.006
   0.14285714 -0.42857143  0.14285714       0.006
   0.28571429 -0.42857143  0.14285714       0.006
   0.42857143 -0.42857143  0.14285714       0.006
  -0.42857143 -0.42857143  0.14285714       0.006
  -0.28571429 -0.42857143  0.14285714       0.006
  -0.14285714 -0.42857143  0.14285714       0.006
  -0.00000000 -0.28571429  0.14285714       0.006
   0.14285714 -0.28571429  0.14285714       0.006
   0.28571429 -0.28571429  0.14285714       0.006
   0.42857143 -0.28571429  0.14285714       0.006
  -0.42857143 -0.28571429  0.14285714       0.006
  -0.28571429 -0.28571429  0.14285714       0.006
  -0.14285714 -0.28571429  0.14285714       0.006
  -0.00000000 -0.14285714  0.14285714       0.006
   0.14285714 -0.14285714  0.14285714       0.006
   0.28571429 -0.14285714  0.14285714       0.006
   0.42857143 -0.14285714  0.14285714       0.006
  -0.42857143 -0.14285714  0.14285714       0.006
  -0.28571429 -0.14285714  0.14285714       0.006
  -0.14285714 -0.14285714  0.14285714       0.006
  -0.00000000  0.00000000  0.28571429       0.006
   0.14285714  0.00000000  0.28571429       0.006
   0.28571429  0.00000000  0.28571429       0.006
   0.42857143  0.00000000  0.28571429       0.006
  -0.42857143 -0.00000000  0.28571429       0.006
  -0.28571429 -0.00000000  0.28571429       0.006
  -0.14285714 -0.00000000  0.28571429       0.006
  -0.00000000  0.14285714  0.28571429       0.006
   0.14285714  0.14285714  0.28571429       0.006
   0.28571429  0.14285714  0.28571429       0.006
   0.42857143  0.14285714  0.28571429       0.006
  -0.42857143  0.14285714  0.28571429       0.006
  -0.28571429  0.14285714  0.28571429       0.006
  -0.14285714  0.14285714  0.28571429       0.006
  -0.00000000  0.28571429  0.28571429       0.006
   0.14285714  0.28571429  0.28571429       0.006
   0.28571429  0.28571429  0.28571429       0.006
   0.42857143  0.28571429  0.28571429       0.006
  -0.42857143  0.28571429  0.28571429       0.006
  -0.28571429  0.28571429  0.28571429       0.006
  -0.14285714  0.28571429  0.28571429       0.006
  -0.00000000  0.42857143  0.28571429       0.006
   0.14285714  0.42857143  0.28571429       0.006
   0.28571429  0.42857143  0.28571429       0.006
   0.42857143  0.42857143  0.28571429       0.006
  -0.42857143  0.42857143  0.28571429       0.006
  -0.28571429  0.42857143  0.28571429       0.006
  -0.14285714  0.42857143  0.28571429       0.006
  -0.00000000 -0.42857143  0.28571429       0.006
   0.14285714 -0.42857143  0.28571429       0.006
   0.28571429 -0.42857143  0.28571429       0.006
   0.42857143 -0.42857143  0.28571429       0.006
  -0.42857143 -0.42857143  0.28571429       0.006
  -0.28571429 -0.42857143  0.28571429       0.006
  -0.14285714 -0.42857143  0.28571429       0.006
  -0.00000000 -0.28571429  0.28571429       0.006
   0.14285714 -0.28571429  0.28571429       0.006
   0.28571429 -0.28571429  0.28571429       0.006
   0.42857143 -0.28571429  0.28571429       0.006
  -0.42857143 -0.28571429  0.28571429       0.006
  -0.28571429 -0.28571429  0.28571429       0.006
  -0.14285714 -0.28571429  0.28571429       0.006
  -0.00000000 -0.14285714  0.28571429       0.006
   0.14285714 -0.14285714  0.28571429       0.006
   0.28571429 -0.14285714  0.28571429       0.006
   0.42857143 -0.14285714  0.28571429       0.006
  -0.42857143 -0.14285714  0.28571429       0.006
  -0.28571429 -0.14285714  0.28571429       0.006
  -0.14285714 -0.14285714  0.28571429       0.006
  -0.00000000  0.00000000  0.42857143       0.006
   0.14285714  0.00000000  0.42857143       0.006
   0.28571429  0.00000000  0.42857143       0.006
   0.42857143  0.00000000  0.42857143       0.006
  -0.42857143 -0.00000000  0.42857143       0.006
  -0.28571429  0.00000000  0.42857143       0.006
  -0.14285714 -0.00000000  0.42857143       0.006
  -0.00000000  0.14285714  0.42857143       0.006
   0.14285714  0.14285714  0.42857143       0.006
   0.28571429  0.14285714  0.42857143       0.006
   0.42857143  0.14285714  0.42857143       0.006
  -0.42857143  0.14285714  0.42857143       0.006
  -0.28571429  0.14285714  0.42857143       0.006
  -0.14285714  0.14285714  0.42857143       0.006
  -0.00000000  0.28571429  0.42857143       0.006
   0.14285714  0.28571429  0.42857143       0.006
   0.28571429  0.28571429  0.42857143       0.006
   0.42857143  0.28571429  0.42857143       0.006
  -0.42857143  0.28571429  0.42857143       0.006
  -0.28571429  0.28571429  0.42857143       0.006
  -0.14285714  0.28571429  0.42857143       0.006
  -0.00000000  0.42857143  0.42857143       0.006
   0.14285714  0.42857143  0.42857143       0.006
   0.28571429  0.42857143  0.42857143       0.006
   0.42857143  0.42857143  0.42857143       0.006
  -0.42857143  0.42857143  0.42857143       0.006
  -0.28571429  0.42857143  0.42857143       0.006
  -0.14285714  0.42857143  0.42857143       0.006
  -0.00000000 -0.42857143  0.42857143       0.006
   0.14285714 -0.42857143  0.42857143       0.006
   0.28571429 -0.42857143  0.42857143       0.006
   0.42857143 -0.42857143  0.42857143       0.006
  -0.42857143 -0.42857143  0.42857143       0.006
  -0.28571429 -0.42857143  0.42857143       0.006
  -0.14285714 -0.42857143  0.42857143       0.006
  -0.00000000 -0.28571429  0.42857143       0.006
   0.14285714 -0.28571429  0.42857143       0.006
   0.28571429 -0.28571429  0.42857143       0.006
   0.42857143 -0.28571429  0.42857143       0.006
  -0.42857143 -0.28571429  0.42857143       0.006
  -0.28571429 -0.28571429  0.42857143       0.006
  -0.14285714 -0.28571429  0.42857143       0.006
  -0.00000000 -0.14285714  0.42857143       0.006
   0.14285714 -0.14285714  0.42857143       0.006
   0.28571429 -0.14285714  0.42857143       0.006
   0.42857143 -0.14285714  0.42857143       0.006
  -0.42857143 -0.14285714  0.42857143       0.006
  -0.28571429 -0.14285714  0.42857143       0.006
  -0.14285714 -0.14285714  0.42857143       0.006
 
 position of ions in fractional coordinates (direct lattice) 
   0.24351698  0.49755419  0.50292889
   0.73482658  0.00531550  0.98570789
   0.79549878  0.50278127  0.49619528
   0.30427585  0.99516314  0.01331912
   0.14336785  0.29903647  0.75152921
   0.91784191  0.80903265  0.78219134
   0.89570665  0.70135632  0.24766680
   0.12129559  0.19121420  0.21695753
   0.39227681  0.79364309  0.75834623
   0.62847977  0.31453632  0.72097411
   0.64682107  0.20686774  0.24067528
   0.41031408  0.68558902  0.27789459
   0.02217323  0.50048431  0.00001051
 
 position of ions in cartesian coordinates  (Angst):
  -0.05282237  2.46485874  2.51377285
   1.31120766  0.02072759  4.94739974
   3.01096096  2.49441183  2.51455293
   1.64768027  4.93925492  0.08044753
  -1.29820614  1.47666678  3.74473849
   2.89205640  4.01163676  3.94292538
   4.25646926  3.48288788  1.28394789
   0.06668452  0.94719473  1.08553117
   0.05901632  3.93215465  3.79177084
   1.46303028  1.55700828  3.62285543
   2.89986203  1.02798761  1.23604867
   1.49459365  3.40122108  1.40418710
   0.12540546  2.48326370 -0.00092824
 


--------------------------------------------------------------------------------------------------------


 k-point  1 :   0.0000 0.0000 0.0000  plane waves:    4559
 k-point  2 :   0.1429 0.0000 0.0000  plane waves:    4558
 k-point  3 :   0.2857 0.0000 0.0000  plane waves:    4573
 k-point  4 :   0.4286 0.0000 0.0000  plane waves:    4567
 k-point  5 :  -0.0000 0.1429 0.0000  plane waves:    4554
 k-point  6 :   0.1429 0.1429 0.0000  plane waves:    4571
 k-point  7 :   0.2857 0.1429 0.0000  plane waves:    4577
 k-point  8 :   0.4286 0.1429 0.0000  plane waves:    4566
 k-point  9 :  -0.4286 0.1429-0.0000  plane waves:    4560
 k-point 10 :  -0.2857 0.1429 0.0000  plane waves:    4569
 k-point 11 :  -0.1429 0.1429-0.0000  plane waves:    4571
 k-point 12 :   0.0000 0.2857 0.0000  plane waves:    4575
 k-point 13 :   0.1429 0.2857 0.0000  plane waves:    4584
 k-point 14 :   0.2857 0.2857-0.0000  plane waves:    4582
 k-point 15 :   0.4286 0.2857 0.0000  plane waves:    4575
 k-point 16 :  -0.4286 0.2857-0.0000  plane waves:    4576
 k-point 17 :  -0.2857 0.2857 0.0000  plane waves:    4578
 k-point 18 :  -0.1429 0.2857-0.0000  plane waves:    4584
 k-point 19 :  -0.0000 0.4286 0.0000  plane waves:    4589
 k-point 20 :   0.1429 0.4286 0.0000  plane waves:    4579
 k-point 21 :   0.2857 0.4286-0.0000  plane waves:    4576
 k-point 22 :   0.4286 0.4286 0.0000  plane waves:    4583
 k-point 23 :  -0.4286 0.4286 0.0000  plane waves:    4584
 k-point 24 :  -0.2857 0.4286 0.0000  plane waves:    4575
 k-point 25 :  -0.1429 0.4286-0.0000  plane waves:    4580
 k-point 26 :  -0.0000 0.0000 0.1429  plane waves:    4551
 k-point 27 :   0.1429-0.0000 0.1429  plane waves:    4562
 k-point 28 :   0.2857 0.0000 0.1429  plane waves:    4564
 k-point 29 :   0.4286 0.0000 0.1429  plane waves:    4569
 k-point 30 :  -0.4286-0.0000 0.1429  plane waves:    4570
 k-point 31 :  -0.2857-0.0000 0.1429  plane waves:    4553
 k-point 32 :  -0.1429-0.0000 0.1429  plane waves:    4548
 k-point 33 :  -0.0000 0.1429 0.1429  plane waves:    4563
 k-point 34 :   0.1429 0.1429 0.1429  plane waves:    4573
 k-point 35 :   0.2857 0.1429 0.1429  plane waves:    4568
 k-point 36 :   0.4286 0.1429 0.1429  plane waves:    4573
 k-point 37 :  -0.4286 0.1429 0.1429  plane waves:    4577
 k-point 38 :  -0.2857 0.1429 0.1429  plane waves:    4559
 k-point 39 :  -0.1429 0.1429 0.1429  plane waves:    4560
 k-point 40 :  -0.0000 0.2857 0.1429  plane waves:    4571
 k-point 41 :   0.1429 0.2857 0.1429  plane waves:    4570
 k-point 42 :   0.2857 0.2857 0.1429  plane waves:    4577
 k-point 43 :   0.4286 0.2857 0.1429  plane waves:    4582
 k-point 44 :  -0.4286 0.2857 0.1429  plane waves:    4586
 k-point 45 :  -0.2857 0.2857 0.1429  plane waves:    4578
 k-point 46 :  -0.1429 0.2857 0.1429  plane waves:    4587
 k-point 47 :  -0.0000 0.4286 0.1429  plane waves:    4577
 k-point 48 :   0.1429 0.4286 0.1429  plane waves:    4580
 k-point 49 :   0.2857 0.4286 0.1429  plane waves:    4580
 k-point 50 :   0.4286 0.4286 0.1429  plane waves:    4574
 k-point 51 :  -0.4286 0.4286 0.1429  plane waves:    4580
 k-point 52 :  -0.2857 0.4286 0.1429  plane waves:    4593
 k-point 53 :  -0.1429 0.4286 0.1429  plane waves:    4584
 k-point 54 :  -0.0000-0.4286 0.1429  plane waves:    4583
 k-point 55 :   0.1429-0.4286 0.1429  plane waves:    4574
 k-point 56 :   0.2857-0.4286 0.1429  plane waves:    4575
 k-point 57 :   0.4286-0.4286 0.1429  plane waves:    4583
 k-point 58 :  -0.4286-0.4286 0.1429  plane waves:    4579
 k-point 59 :  -0.2857-0.4286 0.1429  plane waves:    4596
 k-point 60 :  -0.1429-0.4286 0.1429  plane waves:    4588
 k-point 61 :  -0.0000-0.2857 0.1429  plane waves:    4565
 k-point 62 :   0.1429-0.2857 0.1429  plane waves:    4571
 k-point 63 :   0.2857-0.2857 0.1429  plane waves:    4572
 k-point 64 :   0.4286-0.2857 0.1429  plane waves:    4576
 k-point 65 :  -0.4286-0.2857 0.1429  plane waves:    4586
 k-point 66 :  -0.2857-0.2857 0.1429  plane waves:    4581
 k-point 67 :  -0.1429-0.2857 0.1429  plane waves:    4582
 k-point 68 :  -0.0000-0.1429 0.1429  plane waves:    4557
 k-point 69 :   0.1429-0.1429 0.1429  plane waves:    4570
 k-point 70 :   0.2857-0.1429 0.1429  plane waves:    4563
 k-point 71 :   0.4286-0.1429 0.1429  plane waves:    4571
 k-point 72 :  -0.4286-0.1429 0.1429  plane waves:    4579
 k-point 73 :  -0.2857-0.1429 0.1429  plane waves:    4565
 k-point 74 :  -0.1429-0.1429 0.1429  plane waves:    4562
 k-point 75 :  -0.0000 0.0000 0.2857  plane waves:    4557
 k-point 76 :   0.1429 0.0000 0.2857  plane waves:    4569
 k-point 77 :   0.2857 0.0000 0.2857  plane waves:    4581
 k-point 78 :   0.4286 0.0000 0.2857  plane waves:    4580
 k-point 79 :  -0.4286-0.0000 0.2857  plane waves:    4570
 k-point 80 :  -0.2857-0.0000 0.2857  plane waves:    4571
 k-point 81 :  -0.1429-0.0000 0.2857  plane waves:    4564
 k-point 82 :  -0.0000 0.1429 0.2857  plane waves:    4554
 k-point 83 :   0.1429 0.1429 0.2857  plane waves:    4553
 k-point 84 :   0.2857 0.1429 0.2857  plane waves:    4565
 k-point 85 :   0.4286 0.1429 0.2857  plane waves:    4577
 k-point 86 :  -0.4286 0.1429 0.2857  plane waves:    4582
 k-point 87 :  -0.2857 0.1429 0.2857  plane waves:    4571
 k-point 88 :  -0.1429 0.1429 0.2857  plane waves:    4572
 k-point 89 :  -0.0000 0.2857 0.2857  plane waves:    4556
 k-point 90 :   0.1429 0.2857 0.2857  plane waves:    4561
 k-point 91 :   0.2857 0.2857 0.2857  plane waves:    4567
 k-point 92 :   0.4286 0.2857 0.2857  plane waves:    4563
 k-point 93 :  -0.4286 0.2857 0.2857  plane waves:    4583
 k-point 94 :  -0.2857 0.2857 0.2857  plane waves:    4583
 k-point 95 :  -0.1429 0.2857 0.2857  plane waves:    4579
 k-point 96 :  -0.0000 0.4286 0.2857  plane waves:    4573
 k-point 97 :   0.1429 0.4286 0.2857  plane waves:    4563
 k-point 98 :   0.2857 0.4286 0.2857  plane waves:    4564
 k-point 99 :   0.4286 0.4286 0.2857  plane waves:    4563
 k-point ** :  -0.4286 0.4286 0.2857  plane waves:    4574
 k-point ** :  -0.2857 0.4286 0.2857  plane waves:    4580
 k-point ** :  -0.1429 0.4286 0.2857  plane waves:    4584
 k-point ** :  -0.0000-0.4286 0.2857  plane waves:    4577
 k-point ** :   0.1429-0.4286 0.2857  plane waves:    4571
 k-point ** :   0.2857-0.4286 0.2857  plane waves:    4564
 k-point ** :   0.4286-0.4286 0.2857  plane waves:    4568
 k-point ** :  -0.4286-0.4286 0.2857  plane waves:    4579
 k-point ** :  -0.2857-0.4286 0.2857  plane waves:    4581
 k-point ** :  -0.1429-0.4286 0.2857  plane waves:    4586
 k-point ** :  -0.0000-0.2857 0.2857  plane waves:    4562
 k-point ** :   0.1429-0.2857 0.2857  plane waves:    4555
 k-point ** :   0.2857-0.2857 0.2857  plane waves:    4563
 k-point ** :   0.4286-0.2857 0.2857  plane waves:    4561
 k-point ** :  -0.4286-0.2857 0.2857  plane waves:    4580
 k-point ** :  -0.2857-0.2857 0.2857  plane waves:    4580
 k-point ** :  -0.1429-0.2857 0.2857  plane waves:    4578
 k-point ** :  -0.0000-0.1429 0.2857  plane waves:    4556
 k-point ** :   0.1429-0.1429 0.2857  plane waves:    4559
 k-point ** :   0.2857-0.1429 0.2857  plane waves:    4571
 k-point ** :   0.4286-0.1429 0.2857  plane waves:    4577
 k-point ** :  -0.4286-0.1429 0.2857  plane waves:    4578
 k-point ** :  -0.2857-0.1429 0.2857  plane waves:    4571
 k-point ** :  -0.1429-0.1429 0.2857  plane waves:    4575
 k-point ** :  -0.0000 0.0000 0.4286  plane waves:    4555
 k-point ** :   0.1429 0.0000 0.4286  plane waves:    4557
 k-point ** :   0.2857 0.0000 0.4286  plane waves:    4572
 k-point ** :   0.4286 0.0000 0.4286  plane waves:    4571
 k-point ** :  -0.4286-0.0000 0.4286  plane waves:    4567
 k-point ** :  -0.2857 0.0000 0.4286  plane waves:    4573
 k-point ** :  -0.1429-0.0000 0.4286  plane waves:    4565
 k-point ** :  -0.0000 0.1429 0.4286  plane waves:    4548
 k-point ** :   0.1429 0.1429 0.4286  plane waves:    4551
 k-point ** :   0.2857 0.1429 0.4286  plane waves:    4570
 k-point ** :   0.4286 0.1429 0.4286  plane waves:    4579
 k-point ** :  -0.4286 0.1429 0.4286  plane waves:    4566
 k-point ** :  -0.2857 0.1429 0.4286  plane waves:    4570
 k-point ** :  -0.1429 0.1429 0.4286  plane waves:    4566
 k-point ** :  -0.0000 0.2857 0.4286  plane waves:    4548
 k-point ** :   0.1429 0.2857 0.4286  plane waves:    4545
 k-point ** :   0.2857 0.2857 0.4286  plane waves:    4571
 k-point ** :   0.4286 0.2857 0.4286  plane waves:    4577
 k-point ** :  -0.4286 0.2857 0.4286  plane waves:    4576
 k-point ** :  -0.2857 0.2857 0.4286  plane waves:    4577
 k-point ** :  -0.1429 0.2857 0.4286  plane waves:    4569
 k-point ** :  -0.0000 0.4286 0.4286  plane waves:    4556
 k-point ** :   0.1429 0.4286 0.4286  plane waves:    4552
 k-point ** :   0.2857 0.4286 0.4286  plane waves:    4566
 k-point ** :   0.4286 0.4286 0.4286  plane waves:    4578
 k-point ** :  -0.4286 0.4286 0.4286  plane waves:    4585
 k-point ** :  -0.2857 0.4286 0.4286  plane waves:    4571
 k-point ** :  -0.1429 0.4286 0.4286  plane waves:    4576
 k-point ** :  -0.0000-0.4286 0.4286  plane waves:    4551
 k-point ** :   0.1429-0.4286 0.4286  plane waves:    4551
 k-point ** :   0.2857-0.4286 0.4286  plane waves:    4563
 k-point ** :   0.4286-0.4286 0.4286  plane waves:    4579
 k-point ** :  -0.4286-0.4286 0.4286  plane waves:    4583
 k-point ** :  -0.2857-0.4286 0.4286  plane waves:    4578
 k-point ** :  -0.1429-0.4286 0.4286  plane waves:    4577
 k-point ** :  -0.0000-0.2857 0.4286  plane waves:    4554
 k-point ** :   0.1429-0.2857 0.4286  plane waves:    4547
 k-point ** :   0.2857-0.2857 0.4286  plane waves:    4569
 k-point ** :   0.4286-0.2857 0.4286  plane waves:    4574
 k-point ** :  -0.4286-0.2857 0.4286  plane waves:    4575
 k-point ** :  -0.2857-0.2857 0.4286  plane waves:    4572
 k-point ** :  -0.1429-0.2857 0.4286  plane waves:    4561
 k-point ** :  -0.0000-0.1429 0.4286  plane waves:    4546
 k-point ** :   0.1429-0.1429 0.4286  plane waves:    4554
 k-point ** :   0.2857-0.1429 0.4286  plane waves:    4568
 k-point ** :   0.4286-0.1429 0.4286  plane waves:    4574
 k-point ** :  -0.4286-0.1429 0.4286  plane waves:    4571
 k-point ** :  -0.2857-0.1429 0.4286  plane waves:    4576
 k-point ** :  -0.1429-0.1429 0.4286  plane waves:    4565

 maximum and minimum number of plane-waves per node :       595      550

 maximum number of plane-waves:      4596
 maximum index in each direction: 
   IXMAX=   11   IYMAX=   10   IZMAX=   11
   IXMIN=  -11   IYMIN=  -10   IZMIN=  -11

 WARNING: aliasing errors must be expected set NGX to  46 to avoid them
 WARNING: aliasing errors must be expected set NGY to  42 to avoid them
 WARNING: aliasing errors must be expected set NGZ to  46 to avoid them
 aliasing errors are usually negligible using standard VASP settings
 and one can safely disregard these warnings

 real space projection operators:
  total allocation   :       3355.77 KBytes
  max/ min on nodes  :        476.59        363.81


 parallel 3D FFT for wavefunctions:
    minimum data exchange during FFTs selected (reduces bandwidth)
 parallel 3D FFT for charge:
    minimum data exchange during FFTs selected (reduces bandwidth)


 total amount of memory used by VASP on root node    56716. kBytes
========================================================================

   base      :      30000. kBytes
   nonlr-proj:       1569. kBytes
   fftplans  :        446. kBytes
   grid      :       1214. kBytes
   one-center:         62. kBytes
   wavefun   :      23425. kBytes
 
     INWAV:  cpu time    0.0001: real time    0.0001
 Broyden mixing: mesh for mixing (old mesh)
   NGX = 23   NGY = 19   NGZ = 23
  (NGX  = 72   NGY  = 60   NGZ  = 72)
  gives a total of  10051 points

 initial charge density was supplied:
 charge density of overlapping atoms calculated
 number of electron      73.0000000 magnetization      13.0000000
 keeping initial charge density in first step


--------------------------------------------------------------------------------------------------------


 Maximum index for non-local projection operator          669
 Maximum index for augmentation-charges          879 (set IRDMAX)


--------------------------------------------------------------------------------------------------------


 First call to EWALD:  gamma=   0.344
 Maximum number of real-space cells 3x 3x 3
 Maximum number of reciprocal cells 3x 3x 3

 FEWALD executed in parallel
    FEWALD:  cpu time    0.0014: real time    0.0014


----------------------------------------- Iteration    1(   1)  ---------------------------------------


    POTLOK:  cpu time    0.0118: real time    0.0124
    SETDIJ:  cpu time    0.0050: real time    0.0050
    EDDIAG:  cpu time    2.0354: real time    2.0513
  RMM-DIIS:  cpu time    0.9402: real time    0.9460
    ORTHCH:  cpu time    0.3197: real time    0.3217
       DOS:  cpu time    0.0065: real time    0.0065
    --------------------------------------------
      LOOP:  cpu time    3.3224: real time    3.3483

 eigenvalue-minimisations  : 19264
 total energy-change (2. order) : 0.8886495E+03  (-0.2983753E+04)
 number of electron      73.0000000 magnetization      13.0000000
 augmentation part       73.0000000 magnetization      13.0000000

 Free energy of the ion-electron system (eV)
  ---------------------------------------------------
  alpha Z        PSCENC =       344.04731875
  Ewald energy   TEWEN  =     -3791.28178362
  -Hartree energ DENC   =      -949.41428071
  -exchange      EXHF   =         0.00000000
  -V(xc)+E(xc)   XCENC  =       -24.52777443
  PAW double counting   =      3840.78059494    -3564.91968042
  entropy T*S    EENTRO =        -0.00090530
  eigenvalues    EBANDS =       699.70173587
  atomic energy  EATOM  =      4334.26426117
  Solvation  Ediel_sol  =         0.00000000
  ---------------------------------------------------
  free energy    TOTEN  =       888.64948624 eV

  energy without entropy =      888.65039155  energy(sigma->0) =      888.64993889


--------------------------------------------------------------------------------------------------------




----------------------------------------- Iteration    1(   2)  ---------------------------------------


    EDDIAG:  cpu time    2.0024: real time    2.0158
  RMM-DIIS:  cpu time    0.9383: real time    0.9439
    ORTHCH:  cpu time    0.3295: real time    0.3317
       DOS:  cpu time    0.0067: real time    0.0067
    --------------------------------------------
      LOOP:  cpu time    3.2781: real time    3.3128

 eigenvalue-minimisations  : 19264
 total energy-change (2. order) :-0.7181162E+03  (-0.7167074E+03)
 number of electron      73.0000000 magnetization      13.0000000
 augmentation part       73.0000000 magnetization      13.0000000

 Free energy of the ion-electron system (eV)
  ---------------------------------------------------
  alpha Z        PSCENC =       344.04731875
  Ewald energy   TEWEN  =     -3791.28178362
  -Hartree energ DENC   =      -949.41428071
  -exchange      EXHF   =         0.00000000
  -V(xc)+E(xc)   XCENC  =       -24.52777443
  PAW double counting   =      3840.78059494    -3564.91968042
  entropy T*S    EENTRO =        -0.00152511
  eigenvalues    EBANDS =       -18.41383774
  atomic energy  EATOM  =      4334.26426117
  Solvation  Ediel_sol  =         0.00000000
  ---------------------------------------------------
  free energy    TOTEN  =       170.53329282 eV

  energy without entropy =      170.53481793  energy(sigma->0) =      170.53405537


--------------------------------------------------------------------------------------------------------




----------------------------------------- Iteration    1(   3)  ---------------------------------------


    EDDIAG:  cpu time    2.0108: real time    2.0241
  RMM-DIIS:  cpu time    0.9448: real time    0.9503
    ORTHCH:  cpu time    0.3273: real time    0.3295
       DOS:  cpu time    0.0066: real time    0.0066
    --------------------------------------------
      LOOP:  cpu time    3.2907: real time    3.3285

 eigenvalue-minimisations  : 19264
 total energy-change (2. order) :-0.2130927E+03  (-0.1928014E+03)
 number of electron      73.0000000 magnetization      13.0000000
 augmentation part       73.0000000 magnetization      13.0000000

 Free energy of the ion-electron system (eV)
  ---------------------------------------------------
  alpha Z        PSCENC =       344.04731875
  Ewald energy   TEWEN  =     -3791.28178362
  -Hartree energ DENC   =      -949.41428071
  -exchange      EXHF   =         0.00000000
  -V(xc)+E(xc)   XCENC  =       -24.52777443
  PAW double counting   =      3840.78059494    -3564.91968042
  entropy T*S    EENTRO =        -0.00156080
  eigenvalues    EBANDS =      -231.50651957
  atomic energy  EATOM  =      4334.26426117
  Solvation  Ediel_sol  =         0.00000000
  ---------------------------------------------------
  free energy    TOTEN  =       -42.55942469 eV

  energy without entropy =      -42.55786389  energy(sigma->0) =      -42.55864429


--------------------------------------------------------------------------------------------------------




----------------------------------------- Iteration    1(   4)  ---------------------------------------


    EDDIAG:  cpu time    1.9972: real time    2.0114
  RMM-DIIS:  cpu time    0.9395: real time    0.9448
    ORTHCH:  cpu time    0.3258: real time    0.3278
       DOS:  cpu time    0.0067: real time    0.0067
    --------------------------------------------
      LOOP:  cpu time    3.2705: real time    3.3059

 eigenvalue-minimisations  : 19264
 total energy-change (2. order) :-0.6286481E+02  (-0.4701275E+02)
 number of electron      73.0000000 magnetization      13.0000000
 augmentation part       73.0000000 magnetization      13.0000000

 Free energy of the ion-electron system (eV)
  ---------------------------------------------------
  alpha Z        PSCENC =       344.04731875
  Ewald energy   TEWEN  =     -3791.28178362
  -Hartree energ DENC   =      -949.41428071
  -exchange      EXHF   =         0.00000000
  -V(xc)+E(xc)   XCENC  =       -24.52777443
  PAW double counting   =      3840.78059494    -3564.91968042
  entropy T*S    EENTRO =        -0.00174726
  eigenvalues    EBANDS =      -294.37113923
  atomic energy  EATOM  =      4334.26426117
  Solvation  Ediel_sol  =         0.00000000
  ---------------------------------------------------
  free energy    TOTEN  =      -105.42423082 eV

  energy without entropy =     -105.42248355  energy(sigma->0) =     -105.42335718


--------------------------------------------------------------------------------------------------------




----------------------------------------- Iteration    1(   5)  ---------------------------------------


    EDDIAG:  cpu time    1.9944: real time    2.0089
[...]
     50       9.8689      0.00000
     51      10.8844      0.00000
     52      11.3376      0.00000
     53      11.9728      0.00000
     54      13.1779      0.00000
     55      14.7127      0.00000
     56      15.3309      0.00000

 k-point   171 :      -0.2857   -0.1429    0.4286
  band No.  band energies     occupation 
      1     -14.7990      1.00000
      2     -14.4599      1.00000
      3     -14.3884      1.00000
      4     -14.2941      1.00000
      5     -13.8605      1.00000
      6     -13.7999      1.00000
      7     -13.6667      1.00000
      8     -13.5453      1.00000
      9      -2.6716      1.00000
     10      -2.5291      1.00000
     11      -2.3275      1.00000
     12      -1.9916      1.00000
     13      -1.8505      1.00000
     14      -1.6750      1.00000
     15      -1.4718      1.00000
     16      -1.3354      1.00000
     17      -1.2536      1.00000
     18      -0.8882      1.00000
     19      -0.5332      1.00000
     20      -0.1967      1.00000
     21      -0.0829      1.00000
     22       0.2804      1.00000
     23       0.4776      1.00000
     24       0.5213      1.00000
     25       0.6141      1.00000
     26       0.9194      1.00000
     27       1.0433      1.00000
     28       1.2029      1.00000
     29       1.5605      1.00000
     30       1.7195      1.00000
     31       1.8347      1.00000
     32       2.2720      1.00000
     33       3.3706      1.00000
     34       3.7164      1.00000
     35       4.3266      1.00000
     36       4.6937      1.00000
     37       5.2547      1.00000
     38       5.5428      0.00000
     39       6.0963      0.00000
     40       6.3216      0.00000
     41       6.5943      0.00000
     42       7.0628      0.00000
     43       7.3890      0.00000
     44       7.4688      0.00000
     45       8.0902      0.00000
     46       8.3410      0.00000
     47       8.7258      0.00000
     48       9.2925      0.00000
     49       9.4270      0.00000
     50       9.7962      0.00000
     51      10.5655      0.00000
     52      11.2494      0.00000
     53      11.7798      0.00000
     54      13.5009      0.00000
     55      14.3107      0.00000
     56      15.2407      0.00000

 k-point   172 :      -0.1429   -0.1429    0.4286
  band No.  band energies     occupation 
      1     -14.8209      1.00000
      2     -14.4773      1.00000
      3     -14.4043      1.00000
      4     -14.2991      1.00000
      5     -13.8320      1.00000
      6     -13.8067      1.00000
      7     -13.6842      1.00000
      8     -13.5191      1.00000
      9      -2.6835      1.00000
     10      -2.4192      1.00000
     11      -2.2775      1.00000
     12      -2.0252      1.00000
     13      -2.0037      1.00000
     14      -1.6843      1.00000
     15      -1.5590      1.00000
     16      -1.3709      1.00000
     17      -1.2419      1.00000
     18      -0.7571      1.00000
     19      -0.5128      1.00000
     20      -0.2069      1.00000
     21      -0.1511      1.00000
     22       0.0658      1.00000
     23       0.2319      1.00000
     24       0.2918      1.00000
     25       0.8288      1.00000
     26       1.0914      1.00000
     27       1.1313      1.00000
     28       1.2126      1.00000
     29       1.3292      1.00000
     30       1.6978      1.00000
     31       1.8142      1.00000
     32       2.1765      1.00000
     33       3.3665      1.00000
     34       3.5917      1.00000
     35       4.5839      1.00000
     36       4.9443      1.00000
     37       5.5180      0.00000
     38       5.7925      0.00000
     39       6.1846      0.00000
     40       6.2897      0.00000
     41       6.5700      0.00000
     42       6.9702      0.00000
     43       7.7796      0.00000
     44       7.8448      0.00000
     45       8.3479      0.00000
     46       8.7087      0.00000
     47       8.8264      0.00000
     48       9.3785      0.00000
     49       9.4823      0.00000
     50       9.5809      0.00000
     51      10.1253      0.00000
     52      10.9384      0.00000
     53      11.7023      0.00000
     54      13.3214      0.00000
     55      14.2255      0.00000
     56      14.5971      0.00000


--------------------------------------------------------------------------------------------------------


 soft charge-density along one line, spin component           1
         0         1         2         3         4         5         6         7         8         9
 total charge-density along one line
 
 soft charge-density along one line, spin component           2
         0         1         2         3         4         5         6         7         8         9
 total charge-density along one line
 
 pseudopotential strength for first ion, spin component:           1
 -8.013   0.001   0.001   0.012  -0.000  -8.225   0.001   0.001
  0.001  -8.041  -0.010   0.000   0.022   0.001  -8.253  -0.010
  0.001  -0.010  -8.020   0.001  -0.016   0.001  -0.010  -8.232
  0.012   0.000   0.001  -8.022   0.002   0.012   0.000   0.000
 -0.000   0.022  -0.016   0.002  -8.009  -0.000   0.022  -0.016
 -8.225   0.001   0.001   0.012  -0.000  -8.427   0.001   0.001
  0.001  -8.253  -0.010   0.000   0.022   0.001  -8.454  -0.010
  0.001  -0.010  -8.232   0.000  -0.016   0.001  -0.010  -8.433
  0.012   0.000   0.000  -8.234   0.002   0.012   0.000   0.000
 -0.000   0.022  -0.016   0.002  -8.221  -0.000   0.022  -0.016
  0.000   0.005   0.007  -0.001  -0.009   0.000   0.005   0.007
  0.001   0.011   0.015  -0.003  -0.018   0.001   0.011   0.015
 -0.036  -0.005   0.002   0.004  -0.001  -0.036  -0.004   0.002
  0.004   0.004  -0.022  -0.037  -0.004   0.004   0.005  -0.022
 -0.001   0.004   0.026  -0.012  -0.047  -0.001   0.004   0.026
 -0.051  -0.005   0.002   0.005  -0.003  -0.051  -0.005   0.002
  0.005   0.007  -0.025  -0.053  -0.005   0.005   0.007  -0.026
  0.001   0.005   0.036  -0.014  -0.063   0.001   0.005   0.036
 pseudopotential strength for first ion, spin component:           2
 -8.013   0.001   0.001   0.012  -0.000  -8.225   0.001   0.001
  0.001  -8.041  -0.010   0.000   0.022   0.001  -8.252  -0.010
  0.001  -0.010  -8.020   0.001  -0.016   0.001  -0.010  -8.232
  0.012   0.000   0.001  -8.022   0.002   0.012   0.000   0.000
 -0.000   0.022  -0.016   0.002  -8.009  -0.000   0.022  -0.016
 -8.225   0.001   0.001   0.012  -0.000  -8.427   0.001   0.001
  0.001  -8.252  -0.010   0.000   0.022   0.001  -8.454  -0.010
  0.001  -0.010  -8.232   0.000  -0.016   0.001  -0.010  -8.433
  0.012   0.000   0.000  -8.234   0.002   0.012   0.000   0.000
 -0.000   0.022  -0.016   0.002  -8.221  -0.000   0.022  -0.016
  0.000   0.005   0.007  -0.001  -0.009   0.000   0.005   0.007
  0.001   0.011   0.015  -0.003  -0.018   0.001   0.011   0.015
 -0.036  -0.005   0.002   0.004  -0.001  -0.036  -0.004   0.002
  0.004   0.004  -0.022  -0.037  -0.004   0.004   0.005  -0.022
 -0.001   0.004   0.026  -0.012  -0.047  -0.001   0.004   0.026
 -0.051  -0.005   0.002   0.005  -0.003  -0.051  -0.005   0.002
  0.005   0.007  -0.025  -0.053  -0.005   0.005   0.007  -0.026
  0.001   0.005   0.036  -0.014  -0.063   0.001   0.005   0.036
 total augmentation occupancy for first ion, spin component:           1
  6.547   0.146  -0.075  -3.708  -0.077  -7.155  -0.167   0.100   4.727   0.068  -0.057   0.004   0.025  -0.243   0.033  -0.003
  0.146  10.594   1.167   0.085  -4.151  -0.166 -12.172  -1.336  -0.092   5.000  -0.099   0.004  -0.263  -0.214  -0.300   0.040
 -0.075   1.167   3.309   0.098  -0.631   0.098  -1.351  -3.401  -0.116   0.805  -0.362   0.034  -0.024   0.060   0.164   0.003
 -3.708   0.085   0.098   8.445  -0.130   4.732  -0.091  -0.115  -9.511   0.136  -0.030   0.005  -0.249   0.150  -0.090   0.029
 -0.077  -4.151  -0.631  -0.130   5.039   0.069   5.017   0.804   0.137  -5.486   0.114  -0.005   0.210   0.101  -0.125  -0.030
 -7.155  -0.166   0.098   4.732   0.069   8.604   0.187  -0.110  -5.533  -0.069   0.062  -0.005  -0.061   0.246  -0.036   0.001
 -0.167 -12.172  -1.351  -0.091   5.017   0.187  14.470   1.440   0.110  -5.664   0.144  -0.002   0.304   0.227   0.273  -0.046
  0.100  -1.336  -3.401  -0.115   0.804  -0.110   1.440   4.447   0.122  -1.120   0.318  -0.034   0.016  -0.042  -0.093  -0.001
  4.727  -0.092  -0.116  -9.511   0.137  -5.533   0.110   0.122  11.319  -0.132   0.039  -0.007   0.249  -0.181   0.105  -0.031
  0.068   5.000   0.805   0.136  -5.486  -0.069  -5.664  -1.120  -0.132   6.929  -0.013   0.005  -0.234  -0.108   0.019   0.033
 -0.057  -0.099  -0.362  -0.030   0.114   0.062   0.144   0.318   0.039  -0.013   1.911  -0.147   0.049   0.056  -0.073  -0.006
  0.004   0.004   0.034   0.005  -0.005  -0.005  -0.002  -0.034  -0.007   0.005  -0.147   0.015  -0.005  -0.003   0.003   0.001
  0.025  -0.263  -0.024  -0.249   0.210  -0.061   0.304   0.016   0.249  -0.234   0.049  -0.005   0.431   0.011   0.001  -0.057
 -0.243  -0.214   0.060   0.150   0.101   0.246   0.227  -0.042  -0.181  -0.108   0.056  -0.003   0.011   0.469   0.004  -0.001
  0.033  -0.300   0.164  -0.090  -0.125  -0.036   0.273  -0.093   0.105   0.019  -0.073   0.003   0.001   0.004   0.419  -0.000
 -0.003   0.040   0.003   0.029  -0.030   0.001  -0.046  -0.001  -0.031   0.033  -0.006   0.001  -0.057  -0.001  -0.000   0.008
  0.028   0.027  -0.007  -0.018  -0.014  -0.030  -0.028  -0.001   0.017   0.015  -0.008   0.001  -0.001  -0.062  -0.001   0.000
 -0.009   0.030  -0.024   0.016   0.022   0.008  -0.032   0.026  -0.022  -0.026   0.000   0.000  -0.000  -0.000  -0.052   0.000
 total augmentation occupancy for first ion, spin component:           2
  0.000   0.000   0.000  -0.000   0.000  -0.000  -0.000  -0.000   0.000  -0.000  -0.000  -0.000  -0.000  -0.000   0.000  -0.000
  0.000   0.000  -0.000   0.000  -0.000  -0.000  -0.000   0.000  -0.000   0.000   0.000  -0.000  -0.000  -0.000  -0.000   0.000
  0.000  -0.000  -0.000   0.000  -0.000  -0.000   0.000   0.000  -0.000   0.000   0.000   0.000  -0.000  -0.000   0.000  -0.000
 -0.000   0.000   0.000   0.000   0.000   0.000  -0.000  -0.000  -0.000  -0.000  -0.000   0.000  -0.000  -0.000  -0.000   0.000
  0.000  -0.000  -0.000   0.000  -0.000  -0.000   0.000   0.000  -0.000  -0.000   0.000   0.000   0.000  -0.000  -0.000  -0.000
 -0.000  -0.000  -0.000   0.000  -0.000   0.000  -0.000   0.000  -0.000   0.000   0.000   0.000   0.000   0.000  -0.000   0.000
 -0.000  -0.000   0.000  -0.000   0.000  -0.000   0.000  -0.000   0.000  -0.000  -0.000   0.000   0.000   0.000   0.000  -0.000
 -0.000   0.000   0.000  -0.000   0.000   0.000  -0.000  -0.000   0.000  -0.000  -0.000  -0.000   0.000   0.000  -0.000   0.000
  0.000  -0.000  -0.000  -0.000  -0.000  -0.000   0.000   0.000   0.000   0.000   0.000  -0.000   0.000   0.000   0.000  -0.000
 -0.000   0.000   0.000  -0.000  -0.000   0.000  -0.000  -0.000   0.000   0.000   0.000  -0.000  -0.000   0.000   0.000   0.000
 -0.000   0.000   0.000  -0.000   0.000   0.000  -0.000  -0.000   0.000   0.000   0.000  -0.000   0.000   0.000  -0.000  -0.000
 -0.000  -0.000   0.000   0.000   0.000   0.000   0.000  -0.000  -0.000  -0.000  -0.000   0.000  -0.000  -0.000   0.000   0.000
 -0.000  -0.000  -0.000  -0.000   0.000   0.000   0.000   0.000   0.000  -0.000   0.000  -0.000   0.000   0.000   0.000  -0.000
 -0.000  -0.000  -0.000  -0.000  -0.000   0.000   0.000   0.000   0.000   0.000   0.000  -0.000   0.000   0.000   0.000  -0.000
  0.000  -0.000   0.000  -0.000  -0.000  -0.000   0.000  -0.000   0.000   0.000  -0.000   0.000   0.000   0.000   0.000  -0.000
 -0.000   0.000  -0.000   0.000  -0.000   0.000  -0.000   0.000  -0.000   0.000  -0.000   0.000  -0.000  -0.000  -0.000   0.000
  0.000   0.000   0.000  -0.000   0.000  -0.000  -0.000   0.000   0.000   0.000  -0.000   0.000  -0.000  -0.000  -0.000   0.000
 -0.000   0.000  -0.000   0.000   0.000   0.000  -0.000   0.000  -0.000   0.000   0.000  -0.000  -0.000  -0.000  -0.000   0.000


------------------------ aborting loop because EDIFF is reached ----------------------------------------


    CHARGE:  cpu time    0.1164: real time    0.1170
    FORLOC:  cpu time    0.0003: real time    0.0003
    FORNL :  cpu time    0.9606: real time    0.9654
    STRESS:  cpu time    2.8909: real time    2.9057
    FORCOR:  cpu time    0.0085: real time    0.0086
    FORHAR:  cpu time    0.0012: real time    0.0012
    MIXING:  cpu time    0.0006: real time    0.0006
    OFIELD:  cpu time    0.0000: real time    0.0000

 ---------------------------------------------------------------------------------------------

         DFTD3 V3.0 Rev 1        
 IVDW         = 12
 DF pbe       
 parameters
 VDW_S6       =    1.0000
 VDW_S8       =    0.7875
 VDW_A1       =    0.4289
 VDW_A2       =    4.4407
 k1-k3        =   16.0000    1.3333   -4.0000
 VDW_RADIUS   =   50.2022 A
 VDW_CNRADIUS =   21.1671 A
 Edisp (eV)   -3.40026

 E6    (eV) :    -2.0473
 E8    (eV) :    -1.3530
 % E8        : 39.79
    FORVDW:  cpu time    0.0721: real time    0.0725

  FORCE on cell =-STRESS in cart. coord.  units (eV):
  Direction    XX          YY          ZZ          XY          YZ          ZX
  --------------------------------------------------------------------------------------
  Alpha Z   344.04732   344.04732   344.04732
  Ewald   -1131.03190 -1337.86358 -1322.39120     2.47277     6.37428     3.08247
  Hartree   424.12331   319.53027   302.05386     0.29449     3.65040     0.89337
  E(xc)    -359.53343  -355.38832  -355.82939    -0.10996    -0.18647     0.02887
  Local    -475.13617  -168.48140  -161.86389    -2.59784   -10.51604    -4.20449
  n-local  -256.11302  -245.42611  -242.87116    -0.09378     0.16201     0.52092
  augment    90.03227    88.29857    87.88939     0.05040     0.07283    -0.03544
  Kinetic  1366.94016  1358.87594  1352.57760    -0.02282     0.44241    -0.24555
  Fock        0.00000     0.00000     0.00000     0.00000     0.00000     0.00000
  vdW        -3.51531    -3.55990    -3.56488     0.00123     0.00374    -0.00281
  -------------------------------------------------------------------------------------
  Total      -0.18678     0.03278     0.04766    -0.00552     0.00317     0.03735
  in kB      -2.18494     0.38346     0.55748    -0.06452     0.03713     0.43693
  external pressure =       -0.41 kB  Pullay stress =        0.00 kB


 VOLUME and BASIS-vectors are now :
 -----------------------------------------------------------------------------
  energy-cutoff  :      600.00
  volume of cell :      136.96
      direct lattice vectors                 reciprocal lattice vectors
     5.516515276  0.006428519  0.062121488     0.180139055 -0.000130327  0.100786190
     0.006225423  4.961436772 -0.004711282    -0.000238177  0.201555096  0.000293092
    -2.782272008 -0.010519092  4.972848770    -0.002250547  0.000192582  0.199833222

  length of vectors
     5.516868786  4.961442915  5.698278079     0.206416938  0.201555450  0.199845987


 FORCES acting on ions
    electron-ion (+dipol)            ewald-force                    non-local-force                 convergence-correction
 -----------------------------------------------------------------------------------------------
   -.213E+02 0.128E+02 0.105E+02   0.223E+02 -.126E+02 -.914E+01   -.945E+00 -.139E+00 -.129E+01   0.285E-03 0.243E-03 0.208E-03
   -.179E+02 -.529E+01 0.161E+02   0.189E+02 0.532E+01 -.160E+02   -.991E+00 -.296E-01 -.563E-01   0.777E-03 0.394E-03 -.320E-04
   0.214E+02 -.129E+02 -.106E+02   -.224E+02 0.127E+02 0.922E+01   0.940E+00 0.141E+00 0.129E+01   -.423E-03 -.221E-03 -.147E-03
   0.178E+02 0.543E+01 -.162E+02   -.188E+02 -.545E+01 0.161E+02   0.986E+00 0.186E-01 0.598E-01   -.736E-03 -.424E-03 0.214E-04
   0.288E+01 0.154E+02 -.185E+02   -.259E+01 -.195E+02 0.234E+02   -.242E+00 0.413E+01 -.491E+01   -.860E-03 0.986E-04 0.117E-02
   0.903E+01 -.506E+01 0.346E+02   -.865E+01 0.784E+01 -.422E+02   -.360E+00 -.275E+01 0.761E+01   0.500E-03 -.222E-03 -.256E-04
   -.281E+01 -.154E+02 0.187E+02   0.254E+01 0.195E+02 -.238E+02   0.217E+00 -.409E+01 0.501E+01   0.364E-03 0.127E-03 -.139E-02
   -.873E+01 0.509E+01 -.346E+02   0.829E+01 -.788E+01 0.422E+02   0.427E+00 0.277E+01 -.761E+01   -.881E-03 -.759E-04 -.264E-03
   -.103E+02 -.164E+01 0.343E+02   0.108E+02 -.302E+00 -.408E+02   -.553E+00 0.190E+01 0.638E+01   -.551E-03 -.834E-03 -.227E-03
   -.291E+01 0.132E+02 -.654E+01   0.266E+01 -.147E+02 0.805E+01   0.225E+00 0.153E+01 -.154E+01   0.885E-03 -.642E-03 0.196E-02
   0.101E+02 0.176E+01 -.343E+02   -.106E+02 0.182E+00 0.407E+02   0.527E+00 -.190E+01 -.636E+01   0.104E-02 0.115E-02 0.542E-03
   0.263E+01 -.134E+02 0.635E+01   -.231E+01 0.149E+02 -.779E+01   -.300E+00 -.159E+01 0.147E+01   -.416E-03 0.469E-03 -.176E-02
   0.163E+00 0.293E-01 0.287E-01   -.147E+00 -.281E-01 -.284E-01   -.243E-01 -.368E-02 -.260E-03   -.898E-05 0.162E-05 -.171E-04
 -----------------------------------------------------------------------------------------------
   0.682E-01 0.231E-01 -.422E-01   0.195E-13 0.231E-13 -.231E-13   -.925E-01 -.167E-01 0.497E-01   -.214E-04 0.593E-04 0.510E-04
 
 
 POSITION                                       TOTAL-FORCE (eV/Angst)
 -----------------------------------------------------------------------------------
     -0.05282      2.46486      2.51377         0.003956      0.027379      0.084347
      1.31121      0.02073      4.94740        -0.005402     -0.000984      0.070881
      3.01096      2.49441      2.51455        -0.008259     -0.024511     -0.081063
      1.64768      4.93925      0.08045         0.011525     -0.005521     -0.070455
     -1.29821      1.47667      3.74474         0.052208     -0.026897      0.030295
      2.89206      4.01164      3.94293         0.016000      0.021699      0.033606
      4.25647      3.48289      1.28395        -0.049097      0.031456     -0.033065
      0.06668      0.94719      1.08553        -0.011903     -0.017381     -0.032611
      0.05902      3.93215      3.79177        -0.054972     -0.043490     -0.028248
      1.46303      1.55701      3.62286        -0.028874      0.001432     -0.023851
      2.89986      1.02799      1.23605         0.056934      0.035375      0.026796
      1.49459      3.40122      1.40419         0.024193      0.004422      0.023848
      0.12541      2.48326     -0.00093        -0.006310     -0.002981     -0.000479
 -----------------------------------------------------------------------------------
    total drift:                               -0.024318      0.006439      0.007553


--------------------------------------------------------------------------------------------------------



  FREE ENERGIE OF THE ION-ELECTRON SYSTEM (eV)
  ---------------------------------------------------
  free  energy   TOTEN  =      -112.47237244 eV

  energy  without entropy=     -112.47132144  energy(sigma->0) =     -112.47184694
 


--------------------------------------------------------------------------------------------------------


    POTLOK:  cpu time    0.0138: real time    0.0139


--------------------------------------------------------------------------------------------------------


 stress matrix after NEB project (eV)
     -0.18678     -0.00552      0.03735
     -0.00552      0.03278      0.00317
      0.03735      0.00317      0.04766
  FORCES: max atom, RMS     0.088767    0.062680
  FORCE total and by dimension    0.225996    0.084347
  Stress total and by dimension    0.202742    0.186781


--------------------------------------------------------------------------------------------------------


    WAVPRE:  cpu time    0.0009: real time    0.0009
 FEWALD executed in parallel
    FEWALD:  cpu time    0.0003: real time    0.0003
    GENKIN:  cpu time    0.0224: real time    0.0226

 real space projection operators:
  total allocation   :       3357.33 KBytes
  max/ min on nodes  :        476.80        364.09

    ORTHCH:  cpu time    0.6479: real time    0.6526
     LOOP+:  cpu time   95.9968: real time   96.9553