 vasp.5.4.1 05Feb16 (build Apr 23 2022 14:15:44) complex                        
  
 executed on           IFC91_ompi date 2024.10.23  12:56:16
 running on   16 total cores
 distrk:  each k-point on   16 cores,    1 groups
 distr:  one band on NCORES_PER_BAND=   8 cores,    2 groups


--------------------------------------------------------------------------------------------------------


 INCAR:
 POTCAR:    PAW_PBE Ti 08Apr2002                  
 POTCAR:    PAW_PBE O 08Apr2002                   
 POTCAR:    PAW_PBE Li 17Jan2003                  
 POTCAR:    PAW_PBE Ti 08Apr2002                  
   VRHFIN =Ti: d3 s1                                                            
   LEXCH  = PE                                                                  
   EATOM  =    94.7928 eV,    6.9671 Ry                                         
                                                                                
   TITEL  = PAW_PBE Ti 08Apr2002                                                
   LULTRA =        F    use ultrasoft PP ?                                      
   IUNSCR =        1    unscreen: 0-lin 1-nonlin 2-no                           
   RPACOR =    2.200    partial core radius                                     
   POMASS =   47.880; ZVAL   =    4.000    mass and valenz                      
   RCORE  =    2.800    outmost cutoff radius                                   
   RWIGS  =    2.500; RWIGS  =    1.323    wigner-seitz radius (au A)           
   ENMAX  =  178.330; ENMIN  =  133.747 eV                                      
   RCLOC  =    2.215    cutoff for local pot                                    
   LCOR   =        T    correct aug charges                                     
   LPAW   =        T    paw PP                                                  
   EAUG   =  328.883                                                            
   DEXC   =    0.000                                                            
   RMAX   =    2.868    core radius for proj-oper                               
   RAUG   =    1.300    factor for augmentation sphere                          
   RDEP   =    2.885    radius for radial grids                                 
   RDEPT  =    2.320    core radius for aug-charge                              
                                                                                
   Atomic configuration                                                         
    9 entries                                                                   
     n  l   j            E        occ.                                          
     1  0  0.50     -4865.3608   2.0000                                         
     2  0  0.50      -533.1367   2.0000                                         
     2  1  1.50      -440.5031   6.0000                                         
     3  0  0.50       -59.3186   2.0000                                         
     3  1  1.50       -35.7012   6.0000                                         
     3  2  2.50        -1.9157   3.0000                                         
     4  0  0.50        -3.7291   1.0000                                         
     4  1  1.50        -4.0817   0.0000                                         
     4  3  2.50        -1.3606   0.0000                                         
   Description                                                                  
     l       E           TYP  RCUT    TYP  RCUT                                 
     2     -1.9156924     23  2.800                                             
     2     -0.4062961     23  2.800                                             
     0     -3.7290832     23  2.800                                             
     0     20.4087390     23  2.800                                             
     1     -5.4423304     23  2.800                                             
  local pseudopotential read in
  partial core-charges read in
  partial kinetic energy density read in
  atomic valenz-charges read in
  non local Contribution for L=           2  read in
    real space projection operators read in
  non local Contribution for L=           2  read in
    real space projection operators read in
  non local Contribution for L=           0  read in
    real space projection operators read in
  non local Contribution for L=           0  read in
    real space projection operators read in
  non local Contribution for L=           1  read in
    real space projection operators read in
    PAW grid and wavefunctions read in
 
   number of l-projection  operators is LMAX  =           5
   number of lm-projection operators is LMMAX =          15
 
 POTCAR:    PAW_PBE O 08Apr2002                   
   VRHFIN =O: s2p4                                                              
   LEXCH  = PE                                                                  
   EATOM  =   432.3788 eV,   31.7789 Ry                                         
                                                                                
   TITEL  = PAW_PBE O 08Apr2002                                                 
   LULTRA =        F    use ultrasoft PP ?                                      
   IUNSCR =        1    unscreen: 0-lin 1-nonlin 2-no                           
   RPACOR =    1.200    partial core radius                                     
   POMASS =   16.000; ZVAL   =    6.000    mass and valenz                      
   RCORE  =    1.520    outmost cutoff radius                                   
   RWIGS  =    1.550; RWIGS  =    0.820    wigner-seitz radius (au A)           
   ENMAX  =  400.000; ENMIN  =  300.000 eV                                      
   ICORE  =        2    local potential                                         
   LCOR   =        T    correct aug charges                                     
   LPAW   =        T    paw PP                                                  
   EAUG   =  605.392                                                            
   DEXC   =    0.000                                                            
   RMAX   =    1.553    core radius for proj-oper                               
   RAUG   =    1.300    factor for augmentation sphere                          
   RDEP   =    1.550    radius for radial grids                                 
   RDEPT  =    1.329    core radius for aug-charge                              
                                                                                
   Atomic configuration                                                         
    4 entries                                                                   
     n  l   j            E        occ.                                          
     1  0  0.50      -514.6923   2.0000                                         
     2  0  0.50       -23.9615   2.0000                                         
     2  1  0.50        -9.0305   4.0000                                         
     3  2  1.50        -9.5241   0.0000                                         
   Description                                                                  
     l       E           TYP  RCUT    TYP  RCUT                                 
     0    -23.9615318     23  1.200                                             
     0     -9.5240782     23  1.200                                             
     1     -9.0304911     23  1.520                                             
     1      8.1634956     23  1.520                                             
     2     -9.5240782      7  1.500                                             
  local pseudopotential read in
  partial core-charges read in
  partial kinetic energy density read in
  kinetic energy density of atom read in
  atomic valenz-charges read in
  non local Contribution for L=           0  read in
    real space projection operators read in
  non local Contribution for L=           0  read in
    real space projection operators read in
  non local Contribution for L=           1  read in
    real space projection operators read in
  non local Contribution for L=           1  read in
    real space projection operators read in
    PAW grid and wavefunctions read in
 
   number of l-projection  operators is LMAX  =           4
   number of lm-projection operators is LMMAX =           8
 
 POTCAR:    PAW_PBE Li 17Jan2003                  
   VRHFIN =Li: s1p0                                                             
   LEXCH  = PE                                                                  
   EATOM  =     5.3001 eV,    0.3895 Ry                                         
                                                                                
   TITEL  = PAW_PBE Li 17Jan2003                                                
   LULTRA =        F    use ultrasoft PP ?                                      
   IUNSCR =        1    unscreen: 0-lin 1-nonlin 2-no                           
   RPACOR =    1.500    partial core radius                                     
   POMASS =    7.010; ZVAL   =    1.000    mass and valenz                      
   RCORE  =    2.050    outmost cutoff radius                                   
   RWIGS  =    2.600; RWIGS  =    1.376    wigner-seitz radius (au A)           
   ENMAX  =  140.000; ENMIN  =  100.000 eV                                      
   ICORE  =        2    local potential                                         
   LCOR   =        T    correct aug charges                                     
   LPAW   =        T    paw PP                                                  
   EAUG   =  331.638                                                            
   DEXC   =    0.000                                                            
   RMAX   =    2.098    core radius for proj-oper                               
   RAUG   =    1.300    factor for augmentation sphere                          
   RDEP   =    2.094    radius for radial grids                                 
   RDEPT  =    1.810    core radius for aug-charge                              
                                                                                
   Atomic configuration                                                         
    4 entries                                                                   
     n  l   j            E        occ.                                          
     1  0  0.50       -51.8549   2.0000                                         
     2  0  0.50        -2.8742   1.0000                                         
     2  1  0.50        -1.3606   0.0000                                         
     3  2  1.50        -1.3606   0.0000                                         
   Description                                                                  
     l       E           TYP  RCUT    TYP  RCUT                                 
     0     -2.8742052     23  2.050                                             
     0     27.2116520     23  2.050                                             
     1     -1.3605826     23  2.050                                             
     2     -1.3605826     23  2.050                                             
  local pseudopotential read in
  partial core-charges read in
  partial kinetic energy density read in
  atomic valenz-charges read in
  non local Contribution for L=           0  read in
    real space projection operators read in
  non local Contribution for L=           0  read in
    real space projection operators read in
  non local Contribution for L=           1  read in
    real space projection operators read in
    PAW grid and wavefunctions read in
 
   number of l-projection  operators is LMAX  =           3
   number of lm-projection operators is LMMAX =           5
 
 Optimization of the real space projectors (new method)

 maximal supplied QI-value         = 13.42
 optimisation between [QCUT,QGAM] = [ 12.48, 25.09] = [ 43.60,176.28] Ry 
 Optimized for a Real-space Cutoff    1.56 Angstroem

   l    n(q)    QCUT    max X(q) W(low)/X(q) W(high)/X(q)  e(spline) 
   2     11    12.478    49.363    0.45E-03    0.34E-03    0.89E-06
   2     11    12.478    47.669    0.44E-03    0.33E-03    0.87E-06
   0     12    12.478    26.374    0.17E-03    0.37E-04    0.21E-05
   0     12    12.478    11.549    0.13E-03    0.31E-04    0.17E-05
   1     11    12.478     9.492    0.91E-05    0.64E-04    0.34E-06
 Optimization of the real space projectors (new method)

 maximal supplied QI-value         = 24.76
 optimisation between [QCUT,QGAM] = [ 12.38, 25.00] = [ 42.90,175.06] Ry 
 Optimized for a Real-space Cutoff    1.13 Angstroem

   l    n(q)    QCUT    max X(q) W(low)/X(q) W(high)/X(q)  e(spline) 
   0      8    12.378    20.381    0.16E-03    0.54E-05    0.27E-06
   0      8    12.378    15.268    0.17E-03    0.61E-05    0.29E-06
   1      8    12.378     5.964    0.38E-03    0.23E-03    0.28E-06
   1      8    12.378     5.382    0.33E-03    0.20E-03    0.25E-06
 Optimization of the real space projectors (new method)

 maximal supplied QI-value         = 18.33
 optimisation between [QCUT,QGAM] = [ 12.46, 24.93] = [ 43.51,174.03] Ry 
 Optimized for a Real-space Cutoff    1.13 Angstroem

   l    n(q)    QCUT    max X(q) W(low)/X(q) W(high)/X(q)  e(spline) 
   0      8    12.465    33.825    0.12E-03    0.29E-03    0.99E-07
   0      8    12.465     8.944    0.86E-04    0.22E-03    0.72E-07
   1      8    12.465     4.214    0.27E-03    0.11E-03    0.82E-07
  PAW_PBE Ti 08Apr2002                  :
 energy of atom  1       EATOM=  -94.7928
 kinetic energy error for atom=    0.0001 (will be added to EATOM!!)
  PAW_PBE O 08Apr2002                   :
 energy of atom  2       EATOM= -432.3788
 kinetic energy error for atom=    0.0168 (will be added to EATOM!!)
  PAW_PBE Li 17Jan2003                  :
 energy of atom  3       EATOM=   -5.3001
 kinetic energy error for atom=    0.0000 (will be added to EATOM!!)
 
 
 POSCAR: Ti  O Li                                
  positions in cartesian coordinates
  No initial velocities read in
 exchange correlation table for  LEXCH =        8
   RHO(1)=    0.500       N(1)  =     2000
   RHO(2)=  100.500       N(2)  =     4000

 VTST: version 3.1, (03/28/14)

 CHAIN: initializing optimizer
 
 OPT: Using VASP Conjugate-Gradient optimizer
 CHAIN: Read ICHAIN            0
 
 POSCAR: Ti  O Li                                
  positions in cartesian coordinates
  No initial velocities read in
 


--------------------------------------------------------------------------------------------------------


 ion  position               nearest neighbor table
   1  0.501  0.501  0.515-   6 1.92   5 2.02   5 2.02   7 2.05   7 2.05  12 2.12   2 2.89   2 2.89
                            14 2.91  14 2.91   4 3.09   4 3.09
   2  0.497  0.001  0.738-   8 2.03   8 2.03   6 2.05   6 2.05   7 2.06   9 2.20  13 2.89  13 2.89
                             1 2.89   1 2.89   3 3.10   3 3.10
   3  0.998  0.001  0.999-   8 1.95   9 1.99   9 1.99  10 2.04  11 2.07  11 2.07  13 2.87  13 2.88
                            13 2.88  13 2.88   2 3.10   2 3.10   4 3.12   4 3.12
   4  1.000  0.501  0.256-   5 1.99  12 2.00  12 2.00  11 2.05  10 2.07  10 2.07  14 2.87  14 2.87
                            14 2.87  14 2.87   1 3.09   1 3.09   3 3.12   3 3.12
   5  0.001  0.501  0.473-   4 1.99   1 2.02   1 2.02
   6  0.499  0.501  0.726-   1 1.92   2 2.05   2 2.05  13 2.16
   7  0.500  0.001  0.513-  14 2.05   1 2.05   1 2.05   2 2.06
   8  0.998  0.001  0.786-   3 1.95   2 2.03   2 2.03
   9  0.498  0.001  0.979-   3 1.99   3 1.99  13 2.06  13 2.06   2 2.20
  10  1.000  0.001  0.222-   3 2.04   4 2.07   4 2.07  14 2.08  14 2.08
  11  0.998  0.501  0.032-   4 2.05   3 2.07   3 2.07  13 2.09  13 2.09
  12  0.500  0.501  0.284-   4 2.00   4 2.00  14 2.05  14 2.05   1 2.12
  13  0.498  0.501  0.961-   9 2.06   9 2.06  11 2.09  11 2.09   6 2.16   3 2.87   3 2.88   3 2.88
                             3 2.88   2 2.89   2 2.89
  14  0.500  0.001  0.290-   7 2.05  12 2.05  12 2.05  10 2.08  10 2.08   4 2.87   4 2.87   4 2.87
                             4 2.87   1 2.91   1 2.91
 
  LATTYP: Found a triclinic cell.
 ALAT       =    12.1232800863
 B/A-ratio  =     0.3274552616
 C/A-ratio  =     0.3384162822
 COS(alpha) =     0.0000190641
 COS(beta)  =     0.0001527812
 COS(gamma) =     0.6559013545
  
  Lattice vectors:
  
 A1 = (  -7.9459553769,   0.0006994378,   9.1561843969)
 A2 = (  -3.9698310757,  -0.0000701126,   0.0024808859)
 A3 = (  -0.0000050432,  -4.1027152164,   0.0011389687)


Analysis of symmetry for initial positions (statically):
=====================================================================
 Subroutine PRICEL returns:
 Original cell was already a primitive cell.
 

 Routine SETGRP: Setting up the symmetry group for a 
 triclinic supercell.


 Subroutine GETGRP returns: Found  1 space group operations
 (whereof  1 operations were pure point group operations)
 out of a pool of  2 trial point group operations.


The static configuration has the point symmetry C_1 .


Analysis of symmetry for dynamics (positions and initial velocities):
=====================================================================
 Subroutine PRICEL returns:
 Original cell was already a primitive cell.
 

 Routine SETGRP: Setting up the symmetry group for a 
 triclinic supercell.


 Subroutine GETGRP returns: Found  1 space group operations
 (whereof  1 operations were pure point group operations)
 out of a pool of  2 trial point group operations.


The dynamic configuration has the point symmetry C_1 .


Analysis of structural, dynamic, and magnetic symmetry:
=====================================================================
 Subroutine PRICEL returns:
 Original cell was already a primitive cell.
 

 Routine SETGRP: Setting up the symmetry group for a 
 triclinic supercell.


 Subroutine GETGRP returns: Found  1 space group operations
 (whereof  1 operations were pure point group operations)
 out of a pool of  2 trial point group operations.


The magnetic configuration has the point symmetry C_1 .


 Subroutine INISYM returns: Found  1 space group operations
 (whereof  1 operations are pure point group operations),
 and found     1 'primitive' translations

 
 
 KPOINTS: KPOINTS created by Atomic Simulation Env

Automatic generation of k-mesh.
Space group operators:
 irot       det(A)        alpha          n_x          n_y          n_z        tau_x        tau_y        tau_z
    1     1.000000     0.000000     1.000000     0.000000     0.000000     0.000000     0.000000     0.000000
 
 Subroutine IBZKPT returns following result:
 ===========================================
 
 Found     40 irreducible k-points:
 
 Following reciprocal coordinates:
            Coordinates               Weight
  0.000000  0.000000  0.000000      1.000000
  0.166667  0.000000  0.000000      2.000000
  0.333333  0.000000  0.000000      2.000000
  0.500000  0.000000  0.000000      1.000000
 -0.000000  0.166667  0.000000      2.000000
  0.166667  0.166667 -0.000000      2.000000
  0.333333  0.166667  0.000000      2.000000
  0.500000  0.166667  0.000000      2.000000
 -0.333333  0.166667  0.000000      2.000000
 -0.166667  0.166667 -0.000000      2.000000
  0.000000  0.333333  0.000000      2.000000
  0.166667  0.333333 -0.000000      2.000000
  0.333333  0.333333  0.000000      2.000000
  0.500000  0.333333 -0.000000      2.000000
 -0.333333  0.333333  0.000000      2.000000
 -0.166667  0.333333 -0.000000      2.000000
  0.000000  0.500000  0.000000      1.000000
  0.166667  0.500000  0.000000      2.000000
  0.333333  0.500000  0.000000      2.000000
  0.500000  0.500000 -0.000000      1.000000
  0.000000 -0.000000  0.500000      1.000000
  0.166667 -0.000000  0.500000      2.000000
  0.333333 -0.000000  0.500000      2.000000
  0.500000  0.000000  0.500000      1.000000
 -0.000000  0.166667  0.500000      2.000000
  0.166667  0.166667  0.500000      2.000000
  0.333333  0.166667  0.500000      2.000000
  0.500000  0.166667  0.500000      2.000000
 -0.333333  0.166667  0.500000      2.000000
 -0.166667  0.166667  0.500000      2.000000
 -0.000000  0.333333  0.500000      2.000000
  0.166667  0.333333  0.500000      2.000000
  0.333333  0.333333  0.500000      2.000000
  0.500000  0.333333  0.500000      2.000000
 -0.333333  0.333333  0.500000      2.000000
 -0.166667  0.333333  0.500000      2.000000
  0.000000  0.500000  0.500000      1.000000
  0.166667  0.500000  0.500000      2.000000
  0.333333  0.500000  0.500000      2.000000
  0.500000  0.500000  0.500000      1.000000
 
 Following cartesian coordinates:
            Coordinates               Weight
  0.000000  0.000000  0.000000      1.000000
  0.041983 -0.000000  0.000029      2.000000
  0.083967 -0.000000  0.000058      2.000000
  0.125950 -0.000000  0.000087      1.000000
 -0.000001  0.040624 -0.000004      2.000000
  0.041983  0.040623  0.000025      2.000000
  0.083966  0.040623  0.000054      2.000000
  0.125949  0.040623  0.000083      2.000000
 -0.083967  0.040624 -0.000061      2.000000
 -0.041984  0.040624 -0.000033      2.000000
 -0.000001  0.081247 -0.000007      2.000000
  0.041982  0.081247  0.000021      2.000000
  0.083965  0.081247  0.000050      2.000000
  0.125949  0.081247  0.000079      2.000000
 -0.083968  0.081247 -0.000065      2.000000
 -0.041985  0.081247 -0.000036      2.000000
 -0.000002  0.121871 -0.000011      1.000000
  0.041981  0.121870  0.000018      2.000000
  0.083965  0.121870  0.000047      2.000000
  0.125948  0.121870  0.000075      1.000000
  0.000034  0.000015  0.054638      1.000000
  0.042017  0.000015  0.054666      2.000000
  0.084001  0.000015  0.054695      2.000000
  0.125984  0.000015  0.054724      1.000000
  0.000033  0.040639  0.054634      2.000000
  0.042017  0.040639  0.054663      2.000000
  0.084000  0.040639  0.054692      2.000000
  0.125983  0.040639  0.054720      2.000000
 -0.083933  0.040639  0.054576      2.000000
 -0.041950  0.040639  0.054605      2.000000
  0.000033  0.081262  0.054630      2.000000
  0.042016  0.081262  0.054659      2.000000
  0.083999  0.081262  0.054688      2.000000
  0.125983  0.081262  0.054717      2.000000
 -0.083934  0.081262  0.054572      2.000000
 -0.041951  0.081262  0.054601      2.000000
  0.000032  0.121886  0.054626      1.000000
  0.042015  0.121886  0.054655      2.000000
  0.083999  0.121886  0.054684      2.000000
  0.125982  0.121886  0.054713      1.000000
 


--------------------------------------------------------------------------------------------------------




 Dimension of arrays:
   k-points           NKPTS =     40   k-points in BZ     NKDIM =     40   number of bands    NBANDS=     48
   number of dos      NEDOS =    301   number of ions     NIONS =     14
   non local maximal  LDIM  =      5   non local SUM 2l+1 LMDIM =     15
   total plane-waves  NPLWV =  37632
   max r-space proj   IRMAX =   4067   max aug-charges    IRDMAX=  17635
   dimension x,y,z NGX =    24 NGY =   28 NGZ =   56
   dimension x,y,z NGXF=    48 NGYF=   56 NGZF=  112
   support grid    NGXF=    48 NGYF=   56 NGZF=  112
   ions per type =               4   8   2
 NGX,Y,Z   is equivalent  to a cutoff of  10.05, 11.35, 10.17 a.u.
 NGXF,Y,Z  is equivalent  to a cutoff of  20.10, 22.69, 20.35 a.u.


 I would recommend the setting:
   dimension x,y,z NGX =    24 NGY =   25 NGZ =   55
 SYSTEM =  unknown system                          
 POSCAR =  Ti  O Li                                

 Startparameter for this run:
   NWRITE =      2    write-flag & timer
   PREC   = normal    normal or accurate (medium, high low for compatibility)
   ISTART =      0    job   : 0-new  1-cont  2-samecut
   ICHARG =      2    charge: 1-file 2-atom 10-const
   ISPIN  =      2    spin polarized calculation?
   LNONCOLLINEAR =      F non collinear calculations
   LSORBIT =      F    spin-orbit coupling
   INIWAV =      1    electr: 0-lowe 1-rand  2-diag
   LASPH  =      F    aspherical Exc in radial PAW
   METAGGA=      F    non-selfconsistent MetaGGA calc.

 Electronic Relaxation 1
   ENCUT  =  600.0 eV  44.10 Ry    6.64 a.u.   7.93  8.19 18.28*2*pi/ulx,y,z
   ENINI  =  600.0     initial cutoff
   ENAUG  =  605.4 eV  augmentation charge cutoff
   NELM   =    500;   NELMIN=  2; NELMDL=  0     # of ELM steps 
   EDIFF  = 0.1E-05   stopping-criterion for ELM
   LREAL  =      T    real-space projection
   NLSPLINE    = F    spline interpolate recip. space projectors
   LCOMPAT=      F    compatible to vasp.4.4
   GGA_COMPAT  = T    GGA compatible to vasp.4.4-vasp.4.6
   LMAXPAW     = -100 max onsite density
   LMAXMIX     =    4 max onsite mixed and CHGCAR
   VOSKOWN=      0    Vosko Wilk Nusair interpolation
   ROPT   =   -0.00050  -0.00050  -0.00050
 Ionic relaxation
   EDIFFG = -.1E-01   stopping-criterion for IOM
   NSW    =    500    number of steps for IOM
   NBLOCK =      1;   KBLOCK =    500    inner block; outer block 
   IBRION =      2    ionic relax: 0-MD 1-quasi-New 2-CG
   NFREE  =      1    steps in history (QN), initial steepest desc. (CG)
   ISIF   =      3    stress and relaxation
   IWAVPR =     11    prediction:  0-non 1-charg 2-wave 3-comb
   ISYM   =      2    0-nonsym 1-usesym 2-fastsym
   LCORR  =      T    Harris-Foulkes like correction to forces

   POTIM  = 0.5000    time-step for ionic-motion
   TEIN   =    0.0    initial temperature
   TEBEG  =    0.0;   TEEND  =   0.0 temperature during run
   SMASS  =  -3.00    Nose mass-parameter (am)
   estimated Nose-frequenzy (Omega)   =  0.10E-29 period in steps =****** mass=  -0.360E-27a.u.
   SCALEE = 1.0000    scale energy and forces
   NPACO  =    256;   APACO  = 16.0  distance and # of slots for P.C.
   PSTRESS=    0.0 pullay stress

  Mass of Ions in am
   POMASS =  47.88 16.00  7.01
  Ionic Valenz
   ZVAL   =   4.00  6.00  1.00
  Atomic Wigner-Seitz radii
   RWIGS  =  -1.00 -1.00 -1.00
  virtual crystal weights 
   VCA    =   1.00  1.00  1.00
   NELECT =      66.0000    total number of electrons
   NUPDOWN=      -1.0000    fix difference up-down

 DOS related values:
   EMIN   =  10.00;   EMAX   =-10.00  energy-range for DOS
   EFERMI =   0.00
   ISMEAR =     0;   SIGMA  =   0.03  broadening in eV -4-tet -1-fermi 0-gaus

 Electronic relaxation 2 (details)
   IALGO  =     48    algorithm
   LDIAG  =      T    sub-space diagonalisation (order eigenvalues)
   LSUBROT=      F    optimize rotation matrix (better conditioning)
   TURBO    =      0    0=normal 1=particle mesh
   IRESTART =      0    0=no restart 2=restart with 2 vectors
   NREBOOT  =      0    no. of reboots
   NMIN     =      0    reboot dimension
   EREF     =   0.00    reference energy to select bands
   IMIX   =      4    mixing-type and parameters
     AMIX     =   0.40;   BMIX     =  1.00
     AMIX_MAG =   1.60;   BMIX_MAG =  1.00
     AMIN     =   0.01
     WC   =   100.;   INIMIX=   1;  MIXPRE=   1;  MAXMIX= -45

 Intra band minimization:
   WEIMIN = 0.0010     energy-eigenvalue tresh-hold
   EBREAK =  0.52E-08  absolut break condition
   DEPER  =   0.30     relativ break condition  

   TIME   =   0.40     timestep for ELM

  volume/ion in A,a.u.               =      10.65        71.84
  Fermi-wavevector in a.u.,A,eV,Ry     =   1.247811  2.358020 21.184699  1.557031
  Thomas-Fermi vector in A             =   2.381926
 
 Write flags
   LWAVE  =      F    write WAVECAR
   LCHARG =      F    write CHGCAR
   LVTOT  =      F    write LOCPOT, total local potential
   LVHAR  =      F    write LOCPOT, Hartree potential only
   LELF   =      F    write electronic localiz. function (ELF)
   LORBIT =      0    0 simple, 1 ext, 2 COOP (PROOUT)


 Dipole corrections
   LMONO  =      F    monopole corrections only (constant potential shift)
   LDIPOL =      F    correct potential (dipole corrections)
   IDIPOL =      0    1-x, 2-y, 3-z, 4-all directions 
   EPSILON=  1.0000000 bulk dielectric constant

 LDA+U is selected, type is set to LDAUTYPE =  2
   angular momentum for each species LDAUL =     2   -1   -1
   U (eV)           for each species LDAUU =   3.5  0.0  0.0
   J (eV)           for each species LDAUJ =   0.0  0.0  0.0
 Exchange correlation treatment:
   GGA     =    PE    GGA type
   LEXCH   =     8    internal setting for exchange type
   VOSKOWN=      0    Vosko Wilk Nusair interpolation
   LHFCALC =     F    Hartree Fock is set to
   LHFONE  =     F    Hartree Fock one center treatment
   AEXX    =    0.0000 exact exchange contribution

 Linear response parameters
   LEPSILON=     F    determine dielectric tensor
   LRPA    =     F    only Hartree local field effects (RPA)
   LNABLA  =     F    use nabla operator in PAW spheres
   LVEL    =     F    velocity operator in full k-point grid
   LINTERFAST=   F  fast interpolation
   KINTER  =     0    interpolate to denser k-point grid
   CSHIFT  =0.1000    complex shift for real part using Kramers Kronig
   OMEGAMAX=  -1.0    maximum frequency
   DEG_THRESHOLD= 0.2000000E-02 threshold for treating states as degnerate
   RTIME   =    0.100 relaxation time in fs

 Orbital magnetization related:
   ORBITALMAG=     F  switch on orbital magnetization
   LCHIMAG   =     F  perturbation theory with respect to B field
   DQ        =  0.001000  dq finite difference perturbation B field



--------------------------------------------------------------------------------------------------------


 conjugate gradient relaxation of ions
 charge density and potential will be updated during run
 spin polarized calculation
 RMM-DIIS sequential band-by-band
 perform sub-space diagonalisation
    before iterative eigenvector-optimisation
 modified Broyden-mixing scheme, WC =      100.0
 initial mixing is a Kerker type mixing with AMIX =  0.4000 and BMIX =      1.0000
 Hartree-type preconditioning will be used
 using additional bands           15
 real space projection scheme for non local part
 use partial core corrections
 calculate Harris-corrections to forces 
   (improved forces if not selfconsistent)
 use gradient corrections 
 use of overlap-Matrix (Vanderbilt PP)
 Gauss-broadening in eV      SIGMA  =   0.03


--------------------------------------------------------------------------------------------------------


  energy-cutoff  :      600.00
  volume of cell :      149.05
      direct lattice vectors                 reciprocal lattice vectors
     3.969831076  0.000070113 -0.002480886     0.251899995 -0.000000262  0.000173230
     0.000005043  4.102715216 -0.001138969    -0.000004319  0.243741016 -0.000022367
    -0.006293226  0.000839663  9.151222625     0.000068289  0.000030336  0.109275060

  length of vectors
     3.969831852  4.102715374  9.151224828     0.251900055  0.243741017  0.109275086


 
 k-points in units of 2pi/SCALE and weight: KPOINTS created by Atomic Simulation Env
   0.00000000  0.00000000  0.00000000       0.014
   0.04198333 -0.00000004  0.00002887       0.028
   0.08396667 -0.00000009  0.00005774       0.028
   0.12595000 -0.00000013  0.00008661       0.014
  -0.00000072  0.04062350 -0.00000373       0.028
   0.04198261  0.04062346  0.00002514       0.028
   0.08396595  0.04062342  0.00005402       0.028
   0.12594928  0.04062337  0.00008289       0.028
  -0.08396738  0.04062359 -0.00006147       0.028
  -0.04198405  0.04062355 -0.00003260       0.028
  -0.00000144  0.08124701 -0.00000746       0.028
   0.04198189  0.08124696  0.00002142       0.028
   0.08396523  0.08124692  0.00005029       0.028
   0.12594856  0.08124687  0.00007916       0.028
  -0.08396810  0.08124709 -0.00006520       0.028
  -0.04198477  0.08124705 -0.00003633       0.028
  -0.00000216  0.12187051 -0.00001118       0.014
   0.04198117  0.12187046  0.00001769       0.028
   0.08396451  0.12187042  0.00004656       0.028
   0.12594784  0.12187038  0.00007543       0.014
   0.00003414  0.00001517  0.05463753       0.014
   0.04201748  0.00001512  0.05466640       0.028
   0.08400081  0.00001508  0.05469527       0.028
   0.12598414  0.00001504  0.05472415       0.014
   0.00003342  0.04063867  0.05463380       0.028
   0.04201676  0.04063863  0.05466267       0.028
   0.08400009  0.04063858  0.05469155       0.028
   0.12598342  0.04063854  0.05472042       0.028
  -0.08393324  0.04063876  0.05457606       0.028
  -0.04194991  0.04063871  0.05460493       0.028
   0.00003271  0.08126217  0.05463007       0.028
   0.04201604  0.08126213  0.05465895       0.028
   0.08399937  0.08126209  0.05468782       0.028
   0.12598270  0.08126204  0.05471669       0.028
  -0.08393396  0.08126226  0.05457233       0.028
  -0.04195063  0.08126222  0.05460120       0.028
   0.00003199  0.12188568  0.05462635       0.014
   0.04201532  0.12188563  0.05465522       0.028
   0.08399865  0.12188559  0.05468409       0.028
   0.12598198  0.12188555  0.05471296       0.014
 
 k-points in reciprocal lattice and weights: KPOINTS created by Atomic Simulation Env
   0.00000000  0.00000000  0.00000000       0.014
   0.16666667  0.00000000  0.00000000       0.028
   0.33333333  0.00000000  0.00000000       0.028
   0.50000000  0.00000000  0.00000000       0.014
  -0.00000000  0.16666667  0.00000000       0.028
   0.16666667  0.16666667 -0.00000000       0.028
   0.33333333  0.16666667  0.00000000       0.028
   0.50000000  0.16666667  0.00000000       0.028
  -0.33333333  0.16666667  0.00000000       0.028
  -0.16666667  0.16666667 -0.00000000       0.028
   0.00000000  0.33333333  0.00000000       0.028
   0.16666667  0.33333333 -0.00000000       0.028
   0.33333333  0.33333333  0.00000000       0.028
   0.50000000  0.33333333 -0.00000000       0.028
  -0.33333333  0.33333333  0.00000000       0.028
  -0.16666667  0.33333333 -0.00000000       0.028
   0.00000000  0.50000000  0.00000000       0.014
   0.16666667  0.50000000  0.00000000       0.028
   0.33333333  0.50000000  0.00000000       0.028
   0.50000000  0.50000000 -0.00000000       0.014
   0.00000000 -0.00000000  0.50000000       0.014
   0.16666667 -0.00000000  0.50000000       0.028
   0.33333333 -0.00000000  0.50000000       0.028
   0.50000000  0.00000000  0.50000000       0.014
  -0.00000000  0.16666667  0.50000000       0.028
   0.16666667  0.16666667  0.50000000       0.028
   0.33333333  0.16666667  0.50000000       0.028
   0.50000000  0.16666667  0.50000000       0.028
  -0.33333333  0.16666667  0.50000000       0.028
  -0.16666667  0.16666667  0.50000000       0.028
  -0.00000000  0.33333333  0.50000000       0.028
   0.16666667  0.33333333  0.50000000       0.028
   0.33333333  0.33333333  0.50000000       0.028
   0.50000000  0.33333333  0.50000000       0.028
  -0.33333333  0.33333333  0.50000000       0.028
  -0.16666667  0.33333333  0.50000000       0.028
   0.00000000  0.50000000  0.50000000       0.014
   0.16666667  0.50000000  0.50000000       0.028
   0.33333333  0.50000000  0.50000000       0.028
   0.50000000  0.50000000  0.50000000       0.014
 
 position of ions in fractional coordinates (direct lattice) 
   0.50100818  0.50121523  0.51532144
   0.49715976  0.00126977  0.73836925
   0.99795252  0.00093913  0.99916740
   0.99998458  0.50110789  0.25605608
   0.00057217  0.50149249  0.47320905
   0.49899416  0.50129230  0.72550391
   0.50043383  0.00134161  0.51338678
   0.99771362  0.00131615  0.78637990
   0.49812636  0.00106689  0.97879930
   0.99960926  0.00105739  0.22229138
   0.99825900  0.50102274  0.03182237
   0.50006910  0.50107382  0.28400305
   0.49802420  0.50117160  0.96110763
   0.49993008  0.00109588  0.28990367
 
 position of ions in cartesian coordinates  (Angst):
   1.98567734  2.05681118  4.71400742
   1.96899355  0.00586432  6.75574653
   3.95541494  0.00476192  9.14112647
   3.96816097  2.05618808  2.34017460
  -0.00070407  2.05787824  4.32986880
   1.97635928  2.05730370  6.63743888
   1.98340693  0.00597040  4.69687366
   3.95580568  0.00613005  7.19386081
   1.97131772  0.00523392  8.95597326
   3.96688098  0.00459491  2.03175679
   3.96272187  2.05565033  0.28816635
   1.98340508  2.05603670  2.59716377
   1.97102602  2.05700628  8.79350350
   1.98281355  0.00477457  2.65173146
 


--------------------------------------------------------------------------------------------------------


 k-point  1 :   0.0000 0.0000 0.0000  plane waves:    4979
 k-point  2 :   0.1667 0.0000 0.0000  plane waves:    4982
 k-point  3 :   0.3333 0.0000 0.0000  plane waves:    4965
 k-point  4 :   0.5000 0.0000 0.0000  plane waves:    4968
 k-point  5 :  -0.0000 0.1667 0.0000  plane waves:    4960
 k-point  6 :   0.1667 0.1667-0.0000  plane waves:    4965
 k-point  7 :   0.3333 0.1667 0.0000  plane waves:    4966
 k-point  8 :   0.5000 0.1667 0.0000  plane waves:    4978
 k-point  9 :  -0.3333 0.1667 0.0000  plane waves:    4966
 k-point 10 :  -0.1667 0.1667-0.0000  plane waves:    4967
 k-point 11 :   0.0000 0.3333 0.0000  plane waves:    4967
 k-point 12 :   0.1667 0.3333-0.0000  plane waves:    4967
 k-point 13 :   0.3333 0.3333 0.0000  plane waves:    4988
 k-point 14 :   0.5000 0.3333-0.0000  plane waves:    4994
 k-point 15 :  -0.3333 0.3333 0.0000  plane waves:    4987
 k-point 16 :  -0.1667 0.3333-0.0000  plane waves:    4969
 k-point 17 :   0.0000 0.5000 0.0000  plane waves:    4950
 k-point 18 :   0.1667 0.5000 0.0000  plane waves:    4965
 k-point 19 :   0.3333 0.5000 0.0000  plane waves:    5008
 k-point 20 :   0.5000 0.5000-0.0000  plane waves:    4992
 k-point 21 :   0.0000-0.0000 0.5000  plane waves:    4954
 k-point 22 :   0.1667-0.0000 0.5000  plane waves:    4967
 k-point 23 :   0.3333-0.0000 0.5000  plane waves:    4974
 k-point 24 :   0.5000 0.0000 0.5000  plane waves:    4952
 k-point 25 :  -0.0000 0.1667 0.5000  plane waves:    4977
 k-point 26 :   0.1667 0.1667 0.5000  plane waves:    4983
 k-point 27 :   0.3333 0.1667 0.5000  plane waves:    4979
 k-point 28 :   0.5000 0.1667 0.5000  plane waves:    4970
 k-point 29 :  -0.3333 0.1667 0.5000  plane waves:    4980
 k-point 30 :  -0.1667 0.1667 0.5000  plane waves:    4983
 k-point 31 :  -0.0000 0.3333 0.5000  plane waves:    4964
 k-point 32 :   0.1667 0.3333 0.5000  plane waves:    4972
 k-point 33 :   0.3333 0.3333 0.5000  plane waves:    4980
 k-point 34 :   0.5000 0.3333 0.5000  plane waves:    4988
 k-point 35 :  -0.3333 0.3333 0.5000  plane waves:    4979
 k-point 36 :  -0.1667 0.3333 0.5000  plane waves:    4971
 k-point 37 :   0.0000 0.5000 0.5000  plane waves:    4986
 k-point 38 :   0.1667 0.5000 0.5000  plane waves:    4948
 k-point 39 :   0.3333 0.5000 0.5000  plane waves:    4976
 k-point 40 :   0.5000 0.5000 0.5000  plane waves:    4998

 maximum and minimum number of plane-waves per node :       646      593

 maximum number of plane-waves:      5008
 maximum index in each direction: 
   IXMAX=    8   IYMAX=    8   IZMAX=   18
   IXMIN=   -8   IYMIN=   -8   IZMIN=  -18

 WARNING: aliasing errors must be expected set NGX to  34 to avoid them
 WARNING: aliasing errors must be expected set NGY to  34 to avoid them
 WARNING: aliasing errors must be expected set NGZ to  74 to avoid them
 aliasing errors are usually negligible using standard VASP settings
 and one can safely disregard these warnings

 real space projection operators:
  total allocation   :       2681.01 KBytes
  max/ min on nodes  :        344.05        329.41


 parallel 3D FFT for wavefunctions:
    minimum data exchange during FFTs selected (reduces bandwidth)
 parallel 3D FFT for charge:
    minimum data exchange during FFTs selected (reduces bandwidth)


 total amount of memory used by VASP on root node    54433. kBytes
========================================================================

   base      :      30000. kBytes
   nonlr-proj:       1384. kBytes
   fftplans  :        792. kBytes
   grid      :       2062. kBytes
   one-center:         43. kBytes
   wavefun   :      20152. kBytes
 
     INWAV:  cpu time    0.0001: real time    0.0001
 Broyden mixing: mesh for mixing (old mesh)
   NGX = 15   NGY = 17   NGZ = 37
  (NGX  = 48   NGY  = 56   NGZ  =112)
  gives a total of   9435 points

 initial charge density was supplied:
 charge density of overlapping atoms calculated
 number of electron      66.0000000 magnetization      14.0000000
 keeping initial charge density in first step


--------------------------------------------------------------------------------------------------------


 Maximum index for non-local projection operator          513
 Maximum index for augmentation-charges         1207 (set IRDMAX)


--------------------------------------------------------------------------------------------------------


 First call to EWALD:  gamma=   0.334
 Maximum number of real-space cells 4x 3x 2
 Maximum number of reciprocal cells 2x 2x 4

 FEWALD executed in parallel
    FEWALD:  cpu time    0.0012: real time    0.0012


----------------------------------------- Iteration    1(   1)  ---------------------------------------


    POTLOK:  cpu time    0.0179: real time    0.0181
    SETDIJ:  cpu time    0.0052: real time    0.0053
    EDDIAG:  cpu time    0.4059: real time    0.4089
  RMM-DIIS:  cpu time    0.5484: real time    0.5516
    ORTHCH:  cpu time    0.0732: real time    0.0738
       DOS:  cpu time    0.0049: real time    0.0050
    --------------------------------------------
      LOOP:  cpu time    1.0575: real time    1.0653

 eigenvalue-minimisations  :  3840
 total energy-change (2. order) : 0.8530885E+03  (-0.2517456E+04)
 number of electron      66.0000000 magnetization      14.0000000
 augmentation part       66.0000000 magnetization      14.0000000

 Free energy of the ion-electron system (eV)
  ---------------------------------------------------
  alpha Z        PSCENC =       240.42018843
  Ewald energy   TEWEN  =     -2994.79740639
  -Hartree energ DENC   =     -1015.48101381
  -exchange      EXHF   =         0.00000000
  -V(xc)+E(xc)   XCENC  =        66.88299820
  PAW double counting   =      3287.94238800    -3124.88135687
  entropy T*S    EENTRO =        -0.00339103
  eigenvalues    EBANDS =       544.33926858
  atomic energy  EATOM  =      3848.66684065
  Solvation  Ediel_sol  =         0.00000000
  ---------------------------------------------------
  free energy    TOTEN  =       853.08851575 eV

  energy without entropy =      853.09190679  energy(sigma->0) =      853.09021127


--------------------------------------------------------------------------------------------------------




----------------------------------------- Iteration    1(   2)  ---------------------------------------


    EDDIAG:  cpu time    0.3932: real time    0.3960
  RMM-DIIS:  cpu time    0.5471: real time    0.5503
    ORTHCH:  cpu time    0.0742: real time    0.0749
       DOS:  cpu time    0.0047: real time    0.0048
    --------------------------------------------
      LOOP:  cpu time    1.0205: real time    1.0309

 eigenvalue-minimisations  :  3840
 total energy-change (2. order) :-0.5709499E+03  (-0.5621575E+03)
 number of electron      66.0000000 magnetization      14.0000000
 augmentation part       66.0000000 magnetization      14.0000000

 Free energy of the ion-electron system (eV)
  ---------------------------------------------------
  alpha Z        PSCENC =       240.42018843
  Ewald energy   TEWEN  =     -2994.79740639
  -Hartree energ DENC   =     -1015.48101381
  -exchange      EXHF   =         0.00000000
  -V(xc)+E(xc)   XCENC  =        66.88299820
  PAW double counting   =      3287.94238800    -3124.88135687
  entropy T*S    EENTRO =        -0.00233266
  eigenvalues    EBANDS =       -26.61168054
  atomic energy  EATOM  =      3848.66684065
  Solvation  Ediel_sol  =         0.00000000
  ---------------------------------------------------
  free energy    TOTEN  =       282.13862500 eV

  energy without entropy =      282.14095766  energy(sigma->0) =      282.13979133


--------------------------------------------------------------------------------------------------------




----------------------------------------- Iteration    1(   3)  ---------------------------------------


    EDDIAG:  cpu time    0.3969: real time    0.3996
  RMM-DIIS:  cpu time    0.5565: real time    0.5596
    ORTHCH:  cpu time    0.0740: real time    0.0746
       DOS:  cpu time    0.0048: real time    0.0049
    --------------------------------------------
      LOOP:  cpu time    1.0333: real time    1.0435

 eigenvalue-minimisations  :  3840
 total energy-change (2. order) :-0.2095675E+03  (-0.2008895E+03)
 number of electron      66.0000000 magnetization      14.0000000
 augmentation part       66.0000000 magnetization      14.0000000

 Free energy of the ion-electron system (eV)
  ---------------------------------------------------
  alpha Z        PSCENC =       240.42018843
  Ewald energy   TEWEN  =     -2994.79740639
  -Hartree energ DENC   =     -1015.48101381
  -exchange      EXHF   =         0.00000000
  -V(xc)+E(xc)   XCENC  =        66.88299820
  PAW double counting   =      3287.94238800    -3124.88135687
  entropy T*S    EENTRO =        -0.00428580
  eigenvalues    EBANDS =      -236.17720278
  atomic energy  EATOM  =      3848.66684065
  Solvation  Ediel_sol  =         0.00000000
  ---------------------------------------------------
  free energy    TOTEN  =        72.57114962 eV

  energy without entropy =       72.57543543  energy(sigma->0) =       72.57329252


--------------------------------------------------------------------------------------------------------




----------------------------------------- Iteration    1(   4)  ---------------------------------------


    EDDIAG:  cpu time    0.3951: real time    0.3979
  RMM-DIIS:  cpu time    0.5367: real time    0.5397
    ORTHCH:  cpu time    0.0726: real time    0.0731
       DOS:  cpu time    0.0048: real time    0.0048
    --------------------------------------------
      LOOP:  cpu time    1.0103: real time    1.0199

 eigenvalue-minimisations  :  3840
 total energy-change (2. order) :-0.1161901E+03  (-0.8736738E+02)
 number of electron      66.0000000 magnetization      14.0000000
 augmentation part       66.0000000 magnetization      14.0000000

 Free energy of the ion-electron system (eV)
  ---------------------------------------------------
  alpha Z        PSCENC =       240.42018843
  Ewald energy   TEWEN  =     -2994.79740639
  -Hartree energ DENC   =     -1015.48101381
  -exchange      EXHF   =         0.00000000
  -V(xc)+E(xc)   XCENC  =        66.88299820
  PAW double counting   =      3287.94238800    -3124.88135687
  entropy T*S    EENTRO =        -0.00181664
  eigenvalues    EBANDS =      -352.36974782
  atomic energy  EATOM  =      3848.66684065
  Solvation  Ediel_sol  =         0.00000000
  ---------------------------------------------------
  free energy    TOTEN  =       -43.61892625 eV

  energy without entropy =      -43.61710962  energy(sigma->0) =      -43.61801793


--------------------------------------------------------------------------------------------------------




----------------------------------------- Iteration    1(   5)  ---------------------------------------


    EDDIAG:  cpu time    0.3927: real time    0.3953
  RMM-DIIS:  cpu time    0.5381: real time    0.5412
    ORTHCH:  cpu time    0.0732: real time    0.0738
       DOS:  cpu time    0.0048: real time    0.0048
    --------------------------------------------
      LOOP:  cpu time    1.0101: real time    1.0197

 eigenvalue-minimisations  :  3840
 total energy-change (2. order) :-0.5118712E+02  (-0.4042493E+02)
 number of electron      66.0000000 magnetization      14.0000000
 augmentation part       66.0000000 magnetization      14.0000000

 Free energy of the ion-electron system (eV)
  ---------------------------------------------------
  alpha Z        PSCENC =       240.42018843
  Ewald energy   TEWEN  =     -2994.79740639
  -Hartree energ DENC   =     -1015.48101381
  -exchange      EXHF   =         0.00000000
  -V(xc)+E(xc)   XCENC  =        66.88299820
  PAW double counting   =      3287.94238800    -3124.88135687
  entropy T*S    EENTRO =        -0.00173586
  eigenvalues    EBANDS =      -403.55695220
  atomic energy  EATOM  =      3848.66684065
  Solvation  Ediel_sol  =         0.00000000
  ---------------------------------------------------
  free energy    TOTEN  =       -94.80604985 eV

  energy without entropy =      -94.80431399  energy(sigma->0) =      -94.80518192


--------------------------------------------------------------------------------------------------------




----------------------------------------- Iteration    1(   6)  ---------------------------------------


    EDDIAG:  cpu time    0.4288: real time    0.4325
  RMM-DIIS:  cpu time    0.5410: real time    0.5441
    ORTHCH:  cpu time    0.0726: real time    0.0732
       DOS:  cpu time    0.0048: real time    0.0048
    --------------------------------------------
      LOOP:  cpu time    1.0482: real time    1.0587

 eigenvalue-minimisations  :  3840
 total energy-change (2. order) :-0.2219828E+02  (-0.1792699E+02)
 number of electron      66.0000000 magnetization      14.0000000
 augmentation part       66.0000000 magnetization      14.0000000

 Free energy of the ion-electron system (eV)
  ---------------------------------------------------
  alpha Z        PSCENC =       240.42018843
  Ewald energy   TEWEN  =     -2994.79740639
  -Hartree energ DENC   =     -1015.48101381
  -exchange      EXHF   =         0.00000000
  -V(xc)+E(xc)   XCENC  =        66.88299820
  PAW double counting   =      3287.94238800    -3124.88135687
  entropy T*S    EENTRO =        -0.00178842
  eigenvalues    EBANDS =      -425.75517966
  atomic energy  EATOM  =      3848.66684065
  Solvation  Ediel_sol  =         0.00000000
  ---------------------------------------------------
  free energy    TOTEN  =      -117.00432988 eV

  energy without entropy =     -117.00254145  energy(sigma->0) =     -117.00343567


--------------------------------------------------------------------------------------------------------




----------------------------------------- Iteration    1(   7)  ---------------------------------------


    EDDIAG:  cpu time    0.3925: real time    0.3951
  RMM-DIIS:  cpu time    0.5356: real time    0.5386
    ORTHCH:  cpu time    0.0738: real time    0.0743
       DOS:  cpu time    0.0048: real time    0.0048
    --------------------------------------------
      LOOP:  cpu time    1.0081: real time    1.0174

 eigenvalue-minimisations  :  3840
 total energy-change (2. order) :-0.7604488E+01  (-0.6613985E+01)
 number of electron      66.0000000 magnetization      14.0000000
 augmentation part       66.0000000 magnetization      14.0000000

 Free energy of the ion-electron system (eV)
  ---------------------------------------------------
  alpha Z        PSCENC =       240.42018843
  Ewald energy   TEWEN  =     -2994.79740639
  -Hartree energ DENC   =     -1015.48101381
  -exchange      EXHF   =         0.00000000
  -V(xc)+E(xc)   XCENC  =        66.88299820
  PAW double counting   =      3287.94238800    -3124.88135687
  entropy T*S    EENTRO =        -0.00168486
  eigenvalues    EBANDS =      -433.35977137
  atomic energy  EATOM  =      3848.66684065
  Solvation  Ediel_sol  =         0.00000000
  ---------------------------------------------------
  free energy    TOTEN  =      -124.60881802 eV

  energy without entropy =     -124.60713316  energy(sigma->0) =     -124.60797559


--------------------------------------------------------------------------------------------------------




----------------------------------------- Iteration    1(   8)  ---------------------------------------


    EDDIAG:  cpu time    0.3966: real time    0.3991
  RMM-DIIS:  cpu time    0.5352: real time    0.5382
    ORTHCH:  cpu time    0.0733: real time    0.0739
       DOS:  cpu time    0.0049: real time    0.0049
    --------------------------------------------
      LOOP:  cpu time    1.0110: real time    1.0202

 eigenvalue-minimisations  :  3840
 total energy-change (2. order) :-0.3138322E+01  (-0.2701750E+01)
 number of electron      66.0000000 magnetization      14.0000000
 augmentation part       66.0000000 magnetization      14.0000000

 Free energy of the ion-electron system (eV)
  ---------------------------------------------------
  alpha Z        PSCENC =       240.42018843
  Ewald energy   TEWEN  =     -2994.79740639
  -Hartree energ DENC   =     -1015.48101381
  -exchange      EXHF   =         0.00000000
  -V(xc)+E(xc)   XCENC  =        66.88299820
  PAW double counting   =      3287.94238800    -3124.88135687
  entropy T*S    EENTRO =        -0.00211349
  eigenvalues    EBANDS =      -436.49766509
  atomic energy  EATOM  =      3848.66684065
  Solvation  Ediel_sol  =         0.00000000
  ---------------------------------------------------
  free energy    TOTEN  =      -127.74714037 eV

  energy without entropy =     -127.74502688  energy(sigma->0) =     -127.74608363


--------------------------------------------------------------------------------------------------------




----------------------------------------- Iteration    1(   9)  ---------------------------------------


    EDDIAG:  cpu time    0.3911: real time    0.3937
  RMM-DIIS:  cpu time    1.2681: real time    1.2761
    ORTHCH:  cpu time    0.0733: real time    0.0739
       DOS:  cpu time    0.0046: real time    0.0046
    --------------------------------------------
      LOOP:  cpu time    1.7383: real time    1.7525

 eigenvalue-minimisations  : 10023
 total energy-change (2. order) :-0.2189801E+01  (-0.2087831E+01)
 number of electron      66.0000000 magnetization      14.0000000
 augmentation part       66.0000000 magnetization      14.0000000

 Free energy of the ion-electron system (eV)
  ---------------------------------------------------
  alpha Z        PSCENC =       240.42018843
  Ewald energy   TEWEN  =     -2994.79740639
  -Hartree energ DENC   =     -1015.48101381
  -exchange      EXHF   =         0.00000000
  -V(xc)+E(xc)   XCENC  =        66.88299820
  PAW double counting   =      3287.94238800    -3124.88135687
  entropy T*S    EENTRO =        -0.00264695
  eigenvalues    EBANDS =      -438.68693244
  atomic energy  EATOM  =      3848.66684065
  Solvation  Ediel_sol  =         0.00000000
  ---------------------------------------------------
  free energy    TOTEN  =      -129.93694118 eV

  energy without entropy =     -129.93429423  energy(sigma->0) =     -129.93561771


--------------------------------------------------------------------------------------------------------




----------------------------------------- Iteration    1(  10)  ---------------------------------------


    EDDIAG:  cpu time    0.3938: real time    0.3965
  RMM-DIIS:  cpu time    1.3144: real time    1.3225
    ORTHCH:  cpu time    0.0744: real time    0.0750
       DOS:  cpu time    0.0048: real time    0.0049
    --------------------------------------------
      LOOP:  cpu time    1.7886: real time    1.8034

 eigenvalue-minimisations  : 10404
 total energy-change (2. order) :-0.1261640E+00  (-0.1327620E+00)
 number of electron      66.0000000 magnetization      14.0000000
 augmentation part       66.0000000 magnetization      14.0000000

 Free energy of the ion-electron system (eV)
  ---------------------------------------------------
  alpha Z        PSCENC =       240.42018843
  Ewald energy   TEWEN  =     -2994.79740639
  -Hartree energ DENC   =     -1015.48101381
  -exchange      EXHF   =         0.00000000
  -V(xc)+E(xc)   XCENC  =        66.88299820
  PAW double counting   =      3287.94238800    -3124.88135687
  entropy T*S    EENTRO =        -0.00226252
  eigenvalues    EBANDS =      -438.81348085
  atomic energy  EATOM  =      3848.66684065
  Solvation  Ediel_sol  =         0.00000000
  ---------------------------------------------------
  free energy    TOTEN  =      -130.06310516 eV

  energy without entropy =     -130.06084265  energy(sigma->0) =     -130.06197390


--------------------------------------------------------------------------------------------------------




----------------------------------------- Iteration    1(  11)  ---------------------------------------


    EDDIAG:  cpu time    0.3931: real time    0.3958
  RMM-DIIS:  cpu time    1.3033: real time    1.3114
    ORTHCH:  cpu time    0.0727: real time    0.0732
       DOS:  cpu time    0.0045: real time    0.0045
    --------------------------------------------
      LOOP:  cpu time    1.7750: real time    1.7895

 eigenvalue-minimisations  : 10250
 total energy-change (2. order) :-0.2453846E-01  (-0.2144113E-01)
 number of electron      66.0000000 magnetization      14.0000000
 augmentation part       66.0000000 magnetization      14.0000000

 Free energy of the ion-electron system (eV)
  ---------------------------------------------------
  alpha Z        PSCENC =       240.42018843
  Ewald energy   TEWEN  =     -2994.79740639
  -Hartree energ DENC   =     -1015.48101381
  -exchange      EXHF   =         0.00000000
  -V(xc)+E(xc)   XCENC  =        66.88299820
  PAW double counting   =      3287.94238800    -3124.88135687
  entropy T*S    EENTRO =        -0.00213433
  eigenvalues    EBANDS =      -438.83814750
  atomic energy  EATOM  =      3848.66684065
  Solvation  Ediel_sol  =         0.00000000
  ---------------------------------------------------
  free energy    TOTEN  =      -130.08764362 eV

  energy without entropy =     -130.08550930  energy(sigma->0) =     -130.08657646


--------------------------------------------------------------------------------------------------------




----------------------------------------- Iteration    1(  12)  ---------------------------------------


    EDDIAG:  cpu time    0.3927: real time    0.3952
  RMM-DIIS:  cpu time    1.1417: real time    1.1485
    ORTHCH:  cpu time    0.0736: real time    0.0741
       DOS:  cpu time    0.0048: real time    0.0048
    CHARGE:  cpu time    0.0788: real time    0.0793
    MIXING:  cpu time    0.0004: real time    0.0005
    --------------------------------------------
      LOOP:  cpu time    1.6932: real time    1.7072

 eigenvalue-minimisations  :  8957
 total energy-change (2. order) :-0.8398591E-02  (-0.7596093E-02)
 number of electron      65.9999873 magnetization       7.8486768
 augmentation part        8.1761696 magnetization       6.6123245

 Broyden mixing:
  rms(total) = 0.52923E+01    rms(broyden)= 0.52921E+01
  rms(prec ) = 0.62932E+01
  weight for this iteration     100.00

 Free energy of the ion-electron system (eV)
  ---------------------------------------------------
  alpha Z        PSCENC =       240.42018843
  Ewald energy   TEWEN  =     -2994.79740639
  -Hartree energ DENC   =     -1015.48101381
  -exchange      EXHF   =         0.00000000
  -V(xc)+E(xc)   XCENC  =        66.88299820
  PAW double counting   =      3287.94238800    -3124.88135687
  entropy T*S    EENTRO =        -0.00208912
  eigenvalues    EBANDS =      -438.84659131
  atomic energy  EATOM  =      3848.66684065
  Solvation  Ediel_sol  =         0.00000000
  ---------------------------------------------------
  free energy    TOTEN  =      -130.09604221 eV

  energy without entropy =     -130.09395310  energy(sigma->0) =     -130.09499766


--------------------------------------------------------------------------------------------------------




----------------------------------------- Iteration    1(  13)  ---------------------------------------


    POTLOK:  cpu time    0.0162: real time    0.0163
    SETDIJ:  cpu time    0.0048: real time    0.0048
    EDDIAG:  cpu time    0.3964: real time    0.3989
  RMM-DIIS:  cpu time    1.0048: real time    1.0109
    ORTHCH:  cpu time    0.0734: real time    0.0739
       DOS:  cpu time    0.0048: real time    0.0049
    CHARGE:  cpu time    0.0791: real time    0.0801
    MIXING:  cpu time    0.0006: real time    0.0006
    --------------------------------------------
      LOOP:  cpu time    1.5814: real time    1.5946

 eigenvalue-minimisations  :  7778
 total energy-change (2. order) : 0.3202415E+02  (-0.1789244E+02)
 number of electron      65.9999917 magnetization       4.9904293
 augmentation part        8.9226388 magnetization       4.0617841

 Broyden mixing:
  rms(total) = 0.21023E+01    rms(broyden)= 0.21019E+01
  rms(prec ) = 0.22363E+01
  weight for this iteration     100.00

 eigenvalues of (default mixing * dielectric matrix)
  average eigenvalue GAMMA=   0.9691
  0.9691

 Free energy of the ion-electron system (eV)
  ---------------------------------------------------
  alpha Z        PSCENC =       240.42018843
  Ewald energy   TEWEN  =     -2994.79740639
  -Hartree energ DENC   =     -1188.47451945
  -exchange      EXHF   =         0.00000000
  -V(xc)+E(xc)   XCENC  =        82.92713015
  PAW double counting   =      4240.38007972    -4079.09837824
  entropy T*S    EENTRO =        -0.00165191
  eigenvalues    EBANDS =      -248.09417183
  atomic energy  EATOM  =      3848.66684065
  Solvation  Ediel_sol  =         0.00000000
  ---------------------------------------------------
  free energy    TOTEN  =       -98.07188888 eV

  energy without entropy =      -98.07023696  energy(sigma->0) =      -98.07106292


--------------------------------------------------------------------------------------------------------




----------------------------------------- Iteration    1(  14)  ---------------------------------------


    POTLOK:  cpu time    0.0158: real time    0.0159
    SETDIJ:  cpu time    0.0049: real time    0.0050
    EDDIAG:  cpu time    0.3945: real time    0.3971
  RMM-DIIS:  cpu time    0.9937: real time    0.9995
    ORTHCH:  cpu time    0.0736: real time    0.0741
       DOS:  cpu time    0.0049: real time    0.0049
    CHARGE:  cpu time    0.0789: real time    0.0794
    MIXING:  cpu time    0.0006: real time    0.0006
    --------------------------------------------
      LOOP:  cpu time    1.5683: real time    1.5814

 eigenvalue-minimisations  :  7694
 total energy-change (2. order) :-0.2031750E+01  (-0.8824696E+00)
 number of electron      65.9999911 magnetization       2.2742585
 augmentation part        8.7922414 magnetization       1.4841882

 Broyden mixing:
  rms(total) = 0.10759E+01    rms(broyden)= 0.10759E+01
  rms(prec ) = 0.11311E+01
  weight for this iteration     100.00

 eigenvalues of (default mixing * dielectric matrix)
  average eigenvalue GAMMA=   1.2320
  0.8703  1.5936

 Free energy of the ion-electron system (eV)
  ---------------------------------------------------
  alpha Z        PSCENC =       240.42018843
  Ewald energy   TEWEN  =     -2994.79740639
  -Hartree energ DENC   =     -1148.75802651
  -exchange      EXHF   =         0.00000000
  -V(xc)+E(xc)   XCENC  =        78.20070921
  PAW double counting   =      4673.85448645    -4511.85065151
  entropy T*S    EENTRO =        -0.00126091
  eigenvalues    EBANDS =      -285.83851877
  atomic energy  EATOM  =      3848.66684065
  Solvation  Ediel_sol  =         0.00000000
  ---------------------------------------------------
  free energy    TOTEN  =      -100.10363935 eV

  energy without entropy =     -100.10237844  energy(sigma->0) =     -100.10300890


--------------------------------------------------------------------------------------------------------




----------------------------------------- Iteration    1(  15)  ---------------------------------------


    POTLOK:  cpu time    0.0155: real time    0.0156
    SETDIJ:  cpu time    0.0048: real time    0.0048
    EDDIAG:  cpu time    0.4003: real time    0.4034
  RMM-DIIS:  cpu time    0.9820: real time    0.9878
    ORTHCH:  cpu time    0.0738: real time    0.0744
       DOS:  cpu time    0.0050: real time    0.0050
    CHARGE:  cpu time    0.0782: real time    0.0786
    MIXING:  cpu time    0.0006: real time    0.0006
    --------------------------------------------
      LOOP:  cpu time    1.5613: real time    1.5746

 eigenvalue-minimisations  :  7701
 total energy-change (2. order) :-0.5380553E+00  (-0.3621498E+00)
 number of electron      65.9999909 magnetization       1.8828346
 augmentation part        8.9884570 magnetization       1.1617081

 Broyden mixing:
  rms(total) = 0.41484E+00    rms(broyden)= 0.41480E+00
  rms(prec ) = 0.47599E+00
  weight for this iteration     100.00

 eigenvalues of (default mixing * dielectric matrix)
  average eigenvalue GAMMA=   1.1510
  1.9400  0.8936  0.6196

 Free energy of the ion-electron system (eV)
  ---------------------------------------------------
  alpha Z        PSCENC =       240.42018843
  Ewald energy   TEWEN  =     -2994.79740639
  -Hartree energ DENC   =     -1135.47708899
  -exchange      EXHF   =         0.00000000
  -V(xc)+E(xc)   XCENC  =        77.45761525
  PAW double counting   =      5280.25146678    -5117.94608458
  entropy T*S    EENTRO =        -0.00093933
  eigenvalues    EBANDS =      -299.21628648
  atomic energy  EATOM  =      3848.66684065
  Solvation  Ediel_sol  =         0.00000000
  ---------------------------------------------------
  free energy    TOTEN  =      -100.64169467 eV

  energy without entropy =     -100.64075533  energy(sigma->0) =     -100.64122500


--------------------------------------------------------------------------------------------------------




----------------------------------------- Iteration    1(  16)  ---------------------------------------


    POTLOK:  cpu time    0.0159: real time    0.0160
    SETDIJ:  cpu time    0.0049: real time    0.0049
    EDDIAG:  cpu time    0.3944: real time    0.3969
  RMM-DIIS:  cpu time    0.9926: real time    0.9986
    ORTHCH:  cpu time    0.0742: real time    0.0748
       DOS:  cpu time    0.0047: real time    0.0048
    CHARGE:  cpu time    0.0807: real time    0.0812
    MIXING:  cpu time    0.0007: real time    0.0007
    --------------------------------------------
      LOOP:  cpu time    1.5693: real time    1.5823

 eigenvalue-minimisations  :  7760
 total energy-change (2. order) :-0.1419963E+00  (-0.5515508E-01)
 number of electron      65.9999910 magnetization       1.9591753
 augmentation part        9.0686621 magnetization       1.2781963

 Broyden mixing:
  rms(total) = 0.17642E+00    rms(broyden)= 0.17641E+00
  rms(prec ) = 0.22180E+00
  weight for this iteration     100.00

 eigenvalues of (default mixing * dielectric matrix)
  average eigenvalue GAMMA=   1.1067
  1.9903  0.9283  0.7889  0.7193

 Free energy of the ion-electron system (eV)
  ---------------------------------------------------
  alpha Z        PSCENC =       240.42018843
  Ewald energy   TEWEN  =     -2994.79740639
  -Hartree energ DENC   =     -1139.62756716
  -exchange      EXHF   =         0.00000000
  -V(xc)+E(xc)   XCENC  =        77.83421502
  PAW double counting   =      5421.13150927    -5258.93938489
  entropy T*S    EENTRO =        -0.00121991
  eigenvalues    EBANDS =      -295.47086593
  atomic energy  EATOM  =      3848.66684065
  Solvation  Ediel_sol  =         0.00000000
  ---------------------------------------------------
  free energy    TOTEN  =      -100.78369092 eV

  energy without entropy =     -100.78247101  energy(sigma->0) =     -100.78308096


--------------------------------------------------------------------------------------------------------




----------------------------------------- Iteration    1(  17)  ---------------------------------------


    POTLOK:  cpu time    0.0154: real time    0.0155
    SETDIJ:  cpu time    0.0049: real time    0.0049
    EDDIAG:  cpu time    0.3947: real time    0.3976
  RMM-DIIS:  cpu time    1.0110: real time    1.0171
    ORTHCH:  cpu time    0.0736: real time    0.0741
       DOS:  cpu time    0.0049: real time    0.0050
    CHARGE:  cpu time    0.0772: real time    0.0776
    MIXING:  cpu time    0.0007: real time    0.0007
    --------------------------------------------
      LOOP:  cpu time    1.5837: real time    1.5972

 eigenvalue-minimisations  :  7752
 total energy-change (2. order) :-0.1424692E-01  (-0.1728355E-01)
 number of electron      65.9999911 magnetization       1.9934207
 augmentation part        9.0613985 magnetization       1.3101050

 Broyden mixing:
  rms(total) = 0.12771E+00    rms(broyden)= 0.12770E+00
  rms(prec ) = 0.14873E+00
  weight for this iteration     100.00

 eigenvalues of (default mixing * dielectric matrix)
  average eigenvalue GAMMA=   1.1260
  1.9347  1.4568  0.8207  0.7088  0.7088

 Free energy of the ion-electron system (eV)
  ---------------------------------------------------
  alpha Z        PSCENC =       240.42018843
  Ewald energy   TEWEN  =     -2994.79740639
  -Hartree energ DENC   =     -1143.39866779
  -exchange      EXHF   =         0.00000000
  -V(xc)+E(xc)   XCENC  =        78.08071296
  PAW double counting   =      5434.24636218    -5272.23211970
  entropy T*S    EENTRO =        -0.00104813
  eigenvalues    EBANDS =      -291.78280006
  atomic energy  EATOM  =      3848.66684065
  Solvation  Ediel_sol  =         0.00000000
  ---------------------------------------------------
  free energy    TOTEN  =      -100.79793784 eV

  energy without entropy =     -100.79688971  energy(sigma->0) =     -100.79741378


--------------------------------------------------------------------------------------------------------




----------------------------------------- Iteration    1(  18)  ---------------------------------------


    POTLOK:  cpu time    0.0158: real time    0.0159
    SETDIJ:  cpu time    0.0050: real time    0.0050
    EDDIAG:  cpu time    0.3929: real time    0.3955
  RMM-DIIS:  cpu time    0.9885: real time    0.9945
    ORTHCH:  cpu time    0.0738: real time    0.0744
       DOS:  cpu time    0.0047: real time    0.0048
    CHARGE:  cpu time    0.0781: real time    0.0786
    MIXING:  cpu time    0.0007: real time    0.0007
    --------------------------------------------
      LOOP:  cpu time    1.5611: real time    1.5741

 eigenvalue-minimisations  :  7731
 total energy-change (2. order) :-0.2523866E-01  (-0.8930326E-02)
 number of electron      65.9999911 magnetization       1.9730101
 augmentation part        9.0472872 magnetization       1.2823707

 Broyden mixing:
  rms(total) = 0.88205E-01    rms(broyden)= 0.88199E-01
  rms(prec ) = 0.96400E-01
  weight for this iteration     100.00

 eigenvalues of (default mixing * dielectric matrix)
  average eigenvalue GAMMA=   1.1092
  2.1817  1.4078  0.8851  0.7641  0.7641  0.6521

 Free energy of the ion-electron system (eV)
  ---------------------------------------------------
  alpha Z        PSCENC =       240.42018843
  Ewald energy   TEWEN  =     -2994.79740639
  -Hartree energ DENC   =     -1146.44158408
  -exchange      EXHF   =         0.00000000
  -V(xc)+E(xc)   XCENC  =        78.28172685
  PAW double counting   =      5458.90556013    -5296.95645833
  entropy T*S    EENTRO =        -0.00125252
  eigenvalues    EBANDS =      -288.90079124
  atomic energy  EATOM  =      3848.66684065
  Solvation  Ediel_sol  =         0.00000000
  ---------------------------------------------------
  free energy    TOTEN  =      -100.82317650 eV

  energy without entropy =     -100.82192398  energy(sigma->0) =     -100.82255024


--------------------------------------------------------------------------------------------------------




----------------------------------------- Iteration    1(  19)  ---------------------------------------


    POTLOK:  cpu time    0.0155: real time    0.0156
    SETDIJ:  cpu time    0.0048: real time    0.0049
    EDDIAG:  cpu time    0.3923: real time    0.3950
  RMM-DIIS:  cpu time    1.0028: real time    1.0089
    ORTHCH:  cpu time    0.0742: real time    0.0758
       DOS:  cpu time    0.0044: real time    0.0044
    CHARGE:  cpu time    0.0782: real time    0.0787
    MIXING:  cpu time    0.0008: real time    0.0008
    --------------------------------------------
      LOOP:  cpu time    1.5743: real time    1.5887

 eigenvalue-minimisations  :  7752
 total energy-change (2. order) :-0.1386150E-01  (-0.2052706E-02)
 number of electron      65.9999911 magnetization       1.9643227
 augmentation part        9.0377436 magnetization       1.2712586

 Broyden mixing:
  rms(total) = 0.50022E-01    rms(broyden)= 0.50020E-01
  rms(prec ) = 0.55669E-01
  weight for this iteration     100.00

 eigenvalues of (default mixing * dielectric matrix)
  average eigenvalue GAMMA=   1.2111
  2.7481  1.3356  1.3356  0.7785  0.7785  0.7966  0.7046

 Free energy of the ion-electron system (eV)
  ---------------------------------------------------
  alpha Z        PSCENC =       240.42018843
  Ewald energy   TEWEN  =     -2994.79740639
  -Hartree energ DENC   =     -1147.32447466
  -exchange      EXHF   =         0.00000000
  -V(xc)+E(xc)   XCENC  =        78.35491920
  PAW double counting   =      5484.76150323    -5322.81300509
  entropy T*S    EENTRO =        -0.00137204
  eigenvalues    EBANDS =      -288.10423133
  atomic energy  EATOM  =      3848.66684065
  Solvation  Ediel_sol  =         0.00000000
  ---------------------------------------------------
  free energy    TOTEN  =      -100.83703799 eV

  energy without entropy =     -100.83566596  energy(sigma->0) =     -100.83635198


--------------------------------------------------------------------------------------------------------




----------------------------------------- Iteration    1(  20)  ---------------------------------------


    POTLOK:  cpu time    0.0158: real time    0.0159
    SETDIJ:  cpu time    0.0048: real time    0.0049
    EDDIAG:  cpu time    0.3931: real time    0.3959
  RMM-DIIS:  cpu time    0.9897: real time    0.9956
    ORTHCH:  cpu time    0.0738: real time    0.0744
       DOS:  cpu time    0.0048: real time    0.0048
    CHARGE:  cpu time    0.0778: real time    0.0782
    MIXING:  cpu time    0.0008: real time    0.0008
    --------------------------------------------
      LOOP:  cpu time    1.5620: real time    1.5752

 eigenvalue-minimisations  :  7724
 total energy-change (2. order) :-0.6653825E-02  (-0.1015701E-02)
 number of electron      65.9999911 magnetization       1.9650085
 augmentation part        9.0373065 magnetization       1.2707008

 Broyden mixing:
  rms(total) = 0.37079E-01    rms(broyden)= 0.37076E-01
  rms(prec ) = 0.50838E-01
  weight for this iteration     100.00

 eigenvalues of (default mixing * dielectric matrix)
  average eigenvalue GAMMA=   1.1743
  3.0877  1.4304  1.4304  0.6707  0.6707  0.8085  0.6481  0.6481

 Free energy of the ion-electron system (eV)
  ---------------------------------------------------
  alpha Z        PSCENC =       240.42018843
  Ewald energy   TEWEN  =     -2994.79740639
  -Hartree energ DENC   =     -1147.76936978
  -exchange      EXHF   =         0.00000000
  -V(xc)+E(xc)   XCENC  =        78.40904667
  PAW double counting   =      5504.96733808    -5342.95715858
  entropy T*S    EENTRO =        -0.00043951
  eigenvalues    EBANDS =      -287.78273138
  atomic energy  EATOM  =      3848.66684065
  Solvation  Ediel_sol  =         0.00000000
  ---------------------------------------------------
  free energy    TOTEN  =      -100.84369182 eV

  energy without entropy =     -100.84325231  energy(sigma->0) =     -100.84347206


--------------------------------------------------------------------------------------------------------




----------------------------------------- Iteration    1(  21)  ---------------------------------------


    POTLOK:  cpu time    0.0156: real time    0.0158
    SETDIJ:  cpu time    0.0049: real time    0.0049
    EDDIAG:  cpu time    0.3929: real time    0.3954
  RMM-DIIS:  cpu time    0.9976: real time    1.0036
    ORTHCH:  cpu time    0.0741: real time    0.0746
       DOS:  cpu time    0.0046: real time    0.0047
    CHARGE:  cpu time    0.0779: real time    0.0783
    MIXING:  cpu time    0.0009: real time    0.0009
    --------------------------------------------
      LOOP:  cpu time    1.5697: real time    1.5828

 eigenvalue-minimisations  :  7741
 total energy-change (2. order) :-0.6415863E-03  (-0.2876799E-03)
 number of electron      65.9999911 magnetization       1.9786761
 augmentation part        9.0373287 magnetization       1.2841716

 Broyden mixing:
  rms(total) = 0.20202E-01    rms(broyden)= 0.20202E-01
  rms(prec ) = 0.28561E-01
  weight for this iteration     100.00

 eigenvalues of (default mixing * dielectric matrix)
  average eigenvalue GAMMA=   1.1979
  3.3469  1.5342  1.5342  0.7525  0.7525  0.8575  0.6388  0.6822  0.6822

 Free energy of the ion-electron system (eV)
  ---------------------------------------------------
  alpha Z        PSCENC =       240.42018843
  Ewald energy   TEWEN  =     -2994.79740639
  -Hartree energ DENC   =     -1147.64103711
  -exchange      EXHF   =         0.00000000
  -V(xc)+E(xc)   XCENC  =        78.40778447
  PAW double counting   =      5508.81237008    -5346.76067520
  entropy T*S    EENTRO =        -0.00041022
  eigenvalues    EBANDS =      -287.95198811
  atomic energy  EATOM  =      3848.66684065
  Solvation  Ediel_sol  =         0.00000000
  ---------------------------------------------------
  free energy    TOTEN  =      -100.84433341 eV

  energy without entropy =     -100.84392319  energy(sigma->0) =     -100.84412830


--------------------------------------------------------------------------------------------------------




----------------------------------------- Iteration    1(  22)  ---------------------------------------


    POTLOK:  cpu time    0.0157: real time    0.0158
    SETDIJ:  cpu time    0.0049: real time    0.0050
    EDDIAG:  cpu time    0.3945: real time    0.3973
  RMM-DIIS:  cpu time    1.0271: real time    1.0333
    ORTHCH:  cpu time    0.0740: real time    0.0745
       DOS:  cpu time    0.0046: real time    0.0046
    CHARGE:  cpu time    0.0780: real time    0.0784
    MIXING:  cpu time    0.0009: real time    0.0009
    --------------------------------------------
      LOOP:  cpu time    1.6013: real time    1.6149

 eigenvalue-minimisations  :  7931
 total energy-change (2. order) :-0.5483520E-04  (-0.1754915E-03)
 number of electron      65.9999911 magnetization       1.9990639
 augmentation part        9.0392900 magnetization       1.3045720

 Broyden mixing:
  rms(total) = 0.11877E-01    rms(broyden)= 0.11876E-01
  rms(prec ) = 0.14321E-01
  weight for this iteration     100.00

 eigenvalues of (default mixing * dielectric matrix)
  average eigenvalue GAMMA=   1.2166
  3.3719  1.8897  1.4871  0.8031  0.8031  0.8444  0.8444  0.8663  0.6279  0.6279

 Free energy of the ion-electron system (eV)
  ---------------------------------------------------
  alpha Z        PSCENC =       240.42018843
  Ewald energy   TEWEN  =     -2994.79740639
  -Hartree energ DENC   =     -1147.55046775
  -exchange      EXHF   =         0.00000000
  -V(xc)+E(xc)   XCENC  =        78.40510277
  PAW double counting   =      5506.24254661    -5344.15456109
  entropy T*S    EENTRO =        -0.00043050
  eigenvalues    EBANDS =      -288.07620097
  atomic energy  EATOM  =      3848.66684065
  Solvation  Ediel_sol  =         0.00000000
  ---------------------------------------------------
  free energy    TOTEN  =      -100.84438824 eV

  energy without entropy =     -100.84395774  energy(sigma->0) =     -100.84417299


--------------------------------------------------------------------------------------------------------




----------------------------------------- Iteration    1(  23)  ---------------------------------------


    POTLOK:  cpu time    0.0155: real time    0.0156
    SETDIJ:  cpu time    0.0048: real time    0.0049
    EDDIAG:  cpu time    0.3924: real time    0.3952
  RMM-DIIS:  cpu time    1.0205: real time    1.0267
    ORTHCH:  cpu time    0.0736: real time    0.0742
       DOS:  cpu time    0.0049: real time    0.0049
    CHARGE:  cpu time    0.0783: real time    0.0787
[...]
     43       6.4198      0.00000
     44       6.5171      0.00000
     45       6.7021      0.00000
     46       6.9075      0.00000
     47       7.0580      0.00000
     48       7.4458      0.00000

 k-point    38 :       0.1667    0.5000    0.5000
  band No.  band energies     occupation 
      1     -15.6814      1.00000
      2     -15.6417      1.00000
      3     -15.2117      1.00000
      4     -15.0191      1.00000
      5     -14.9418      1.00000
      6     -14.8950      1.00000
      7     -14.8568      1.00000
      8     -14.7308      1.00000
      9      -2.8254      1.00000
     10      -2.7642      1.00000
     11      -2.5959      1.00000
     12      -2.5610      1.00000
     13      -2.1846      1.00000
     14      -2.1357      1.00000
     15      -2.0346      1.00000
     16      -1.9706      1.00000
     17      -1.9159      1.00000
     18      -1.7080      1.00000
     19      -1.4937      1.00000
     20      -1.4895      1.00000
     21      -1.0577      1.00000
     22      -0.9211      1.00000
     23      -0.5874      1.00000
     24      -0.5440      1.00000
     25      -0.4623      1.00000
     26      -0.4381      1.00000
     27      -0.0597      1.00000
     28       0.1361      1.00000
     29       0.3895      1.00000
     30       0.4680      1.00000
     31       0.7827      1.00000
     32       0.9086      1.00000
     33       4.7547      0.00000
     34       5.0206      0.00000
     35       5.2596      0.00000
     36       5.3651      0.00000
     37       5.3943      0.00000
     38       5.5238      0.00000
     39       5.9096      0.00000
     40       5.9511      0.00000
     41       6.0748      0.00000
     42       6.2384      0.00000
     43       6.6350      0.00000
     44       6.8234      0.00000
     45       6.8998      0.00000
     46       7.4432      0.00000
     47       7.6383      0.00000
     48       7.7607      0.00000

 k-point    39 :       0.3333    0.5000    0.5000
  band No.  band energies     occupation 
      1     -15.4252      1.00000
      2     -15.4060      1.00000
      3     -15.2153      1.00000
      4     -15.0294      1.00000
      5     -14.8888      1.00000
      6     -14.8003      1.00000
      7     -14.7922      1.00000
      8     -14.7245      1.00000
      9      -3.0490      1.00000
     10      -3.0150      1.00000
     11      -2.6564      1.00000
     12      -2.6029      1.00000
     13      -2.5244      1.00000
     14      -2.4872      1.00000
     15      -2.3078      1.00000
     16      -2.2984      1.00000
     17      -2.0191      1.00000
     18      -1.8706      1.00000
     19      -1.6526      1.00000
     20      -1.6398      1.00000
     21      -1.5275      1.00000
     22      -1.4950      1.00000
     23      -1.3913      1.00000
     24      -1.1348      1.00000
     25      -0.4843      1.00000
     26      -0.3765      1.00000
     27       0.2695      1.00000
     28       0.2770      1.00000
     29       0.4251      1.00000
     30       0.5998      1.00000
     31       1.0669      1.00000
     32       1.3250      1.00000
     33       4.8807      0.00000
     34       5.2728      0.00000
     35       5.3923      0.00000
     36       5.4333      0.00000
     37       5.5441      0.00000
     38       5.8147      0.00000
     39       5.9155      0.00000
     40       6.1475      0.00000
     41       6.2721      0.00000
     42       6.4394      0.00000
     43       6.9376      0.00000
     44       7.2331      0.00000
     45       7.2446      0.00000
     46       7.6464      0.00000
     47       7.6952      0.00000
     48       8.3576      0.00000

 k-point    40 :       0.5000    0.5000    0.5000
  band No.  band energies     occupation 
      1     -15.2620      1.00000
      2     -15.2577      1.00000
      3     -15.2327      1.00000
      4     -15.0583      1.00000
      5     -14.8743      1.00000
      6     -14.7563      1.00000
      7     -14.7503      1.00000
      8     -14.7285      1.00000
      9      -3.1207      1.00000
     10      -2.9755      1.00000
     11      -2.8932      1.00000
     12      -2.8906      1.00000
     13      -2.6479      1.00000
     14      -2.5845      1.00000
     15      -2.4889      1.00000
     16      -2.3419      1.00000
     17      -2.2266      1.00000
     18      -1.9700      1.00000
     19      -1.8374      1.00000
     20      -1.7885      1.00000
     21      -1.7775      1.00000
     22      -1.5134      1.00000
     23      -1.4269      1.00000
     24      -1.2465      1.00000
     25      -0.3831      1.00000
     26      -0.2553      1.00000
     27       0.0081      1.00000
     28       0.0153      1.00000
     29       0.6001      1.00000
     30       0.7740      1.00000
     31       1.1975      1.00000
     32       1.4768      1.00000
     33       5.0744      0.00000
     34       5.3126      0.00000
     35       5.4017      0.00000
     36       5.5877      0.00000
     37       5.7127      0.00000
     38       5.9714      0.00000
     39       5.9767      0.00000
     40       6.2252      0.00000
     41       6.4601      0.00000
     42       6.5487      0.00000
     43       7.1106      0.00000
     44       7.4469      0.00000
     45       7.5125      0.00000
     46       7.6510      0.00000
     47       7.6895      0.00000
     48       8.7024      0.00000


--------------------------------------------------------------------------------------------------------


 soft charge-density along one line, spin component           1
         0         1         2         3         4         5         6         7         8         9
 total charge-density along one line
 
 soft charge-density along one line, spin component           2
         0         1         2         3         4         5         6         7         8         9
 total charge-density along one line
 
 pseudopotential strength for first ion, spin component:           1
 -3.890   0.001  -0.000  -0.000  -0.000  -4.032   0.001  -0.000
  0.001  -4.053  -0.000   0.000   0.000   0.001  -4.211   0.000
 -0.000  -0.000  -4.551   0.003   0.036  -0.000   0.000  -4.751
 -0.000   0.000   0.003  -3.850   0.000  -0.000   0.000   0.003
 -0.000   0.000   0.036   0.000  -4.422  -0.000   0.000   0.039
 -4.032   0.001  -0.000  -0.000  -0.000  -4.067   0.001  -0.000
  0.001  -4.211   0.000   0.000   0.000   0.001  -4.267   0.000
 -0.000   0.000  -4.751   0.003   0.039  -0.000   0.000  -4.862
 -0.000   0.000   0.003  -3.987   0.000  -0.000   0.000   0.003
 -0.000   0.000   0.039   0.000  -4.611  -0.000   0.000   0.043
 -0.000   0.000  -0.001   0.000  -0.004  -0.000   0.000  -0.002
  0.000  -0.000   0.005  -0.000   0.007   0.000  -0.000   0.006
 -0.000   0.011   0.000  -0.000   0.000  -0.000   0.013   0.000
 -0.000  -0.000   0.015  -0.000  -0.003  -0.000  -0.000   0.017
 -0.000  -0.000  -0.000   0.005   0.000  -0.000  -0.000  -0.000
 pseudopotential strength for first ion, spin component:           2
 -3.705   0.000   0.000   0.000  -0.000  -3.824  -0.000   0.000
  0.000  -3.682  -0.000   0.000  -0.000  -0.000  -3.798  -0.000
  0.000  -0.000  -4.453   0.002  -0.009   0.000  -0.000  -4.639
  0.000   0.000   0.002  -3.784   0.001   0.000   0.000   0.002
 -0.000  -0.000  -0.009   0.001  -4.336  -0.000  -0.000  -0.010
 -3.824  -0.000   0.000   0.000  -0.000  -3.829  -0.000   0.000
 -0.000  -3.798  -0.000   0.000  -0.000  -0.000  -3.799  -0.001
  0.000  -0.000  -4.639   0.002  -0.010   0.000  -0.001  -4.733
  0.000   0.000   0.002  -3.911   0.001   0.000   0.000   0.002
 -0.000  -0.000  -0.010   0.001  -4.514  -0.000  -0.000  -0.012
 -0.000  -0.000  -0.002   0.000   0.001  -0.000  -0.000  -0.002
  0.000   0.000   0.006  -0.000  -0.003   0.000   0.000   0.007
 -0.000   0.008   0.000  -0.000   0.000  -0.000   0.009   0.000
 -0.000  -0.000   0.013  -0.000  -0.002  -0.000  -0.000   0.015
 -0.000  -0.000  -0.000   0.003   0.000  -0.000  -0.000  -0.000
 total augmentation occupancy for first ion, spin component:           1
  2.275  -0.009  -0.000  -0.001   0.000  -1.323   0.006   0.000   0.001  -0.000   0.000   0.000  -0.003  -0.000   0.001
 -0.009   2.998   0.004   0.000   0.001   0.006  -1.848  -0.003  -0.000  -0.001   0.000  -0.000   0.069  -0.000  -0.000
 -0.000   0.004  10.732  -0.027   0.012   0.000  -0.003  -7.301   0.020  -0.016   0.372   0.027   0.001   0.587  -0.006
 -0.001   0.000  -0.027   3.304  -0.017   0.001  -0.000   0.019  -2.084   0.012  -0.015  -0.001  -0.000  -0.009  -0.379
  0.000   0.001   0.012  -0.017   9.605  -0.000  -0.001  -0.016   0.012  -6.527   0.042   0.002   0.002  -0.173   0.005
 -1.323   0.006   0.000   0.001  -0.000   0.799  -0.004  -0.000  -0.001   0.000  -0.000  -0.000   0.002   0.000  -0.001
  0.006  -1.848  -0.003  -0.000  -0.001  -0.004   1.190   0.002   0.000   0.000  -0.000   0.000  -0.062   0.000   0.000
  0.000  -0.003  -7.301   0.019  -0.016  -0.000   0.002   5.074  -0.015   0.007  -0.257  -0.024  -0.001  -0.399   0.004
  0.001  -0.000   0.020  -2.084   0.012  -0.001   0.000  -0.015   1.334  -0.008   0.011   0.001   0.000   0.006   0.275
 -0.000  -0.001  -0.016   0.012  -6.527   0.000   0.000   0.007  -0.008   4.519  -0.028  -0.001  -0.002   0.132  -0.003
  0.000   0.000   0.372  -0.015   0.042  -0.000  -0.000  -0.257   0.011  -0.028   1.984   0.110  -0.001   0.092  -0.000
  0.000  -0.000   0.027  -0.001   0.002  -0.000   0.000  -0.024   0.001  -0.001   0.110   0.011  -0.000   0.002  -0.000
 -0.003   0.069   0.001  -0.000   0.002   0.002  -0.062  -0.001   0.000  -0.002  -0.001  -0.000   0.491   0.000   0.000
 -0.000  -0.000   0.587  -0.009  -0.173   0.000   0.000  -0.399   0.006   0.132   0.092   0.002   0.000   0.570  -0.002
  0.001  -0.000  -0.006  -0.379   0.005  -0.001   0.000   0.004   0.275  -0.003  -0.000  -0.000   0.000  -0.002   0.509
 total augmentation occupancy for first ion, spin component:           2
  0.004  -0.001   0.000   0.000  -0.000   0.017   0.001   0.000   0.000   0.000  -0.000   0.000  -0.000  -0.000  -0.000
 -0.001   0.130  -0.000   0.000  -0.000   0.001  -0.028  -0.000  -0.000   0.000   0.000  -0.000   0.001   0.000  -0.000
  0.000  -0.000  -0.028  -0.000   0.005  -0.000   0.000   0.025   0.000  -0.005  -0.011   0.000   0.000  -0.006   0.000
  0.000   0.000  -0.000  -0.008   0.000   0.000  -0.000   0.000   0.013  -0.000   0.000  -0.000  -0.000   0.000   0.001
 -0.000  -0.000   0.005   0.000  -0.029   0.000   0.000  -0.005  -0.000   0.027   0.002  -0.000  -0.000   0.007  -0.000
  0.017   0.001  -0.000   0.000   0.000   0.003  -0.000   0.000   0.000  -0.000   0.000  -0.000   0.000   0.000  -0.000
  0.001  -0.028   0.000  -0.000   0.000  -0.000   0.032  -0.000   0.000  -0.000  -0.000   0.000  -0.014   0.000  -0.000
  0.000  -0.000   0.025   0.000  -0.005   0.000  -0.000  -0.007  -0.000  -0.006   0.017  -0.001   0.000   0.007  -0.000
  0.000  -0.000   0.000   0.013  -0.000   0.000   0.000  -0.000  -0.011   0.000  -0.000   0.000   0.000  -0.000  -0.001
  0.000   0.000  -0.005  -0.000   0.027  -0.000  -0.000  -0.006   0.000  -0.012  -0.008   0.001   0.000  -0.007   0.000
 -0.000   0.000  -0.011   0.000   0.002   0.000  -0.000   0.017  -0.000  -0.008   0.002  -0.002  -0.000  -0.002   0.000
  0.000  -0.000   0.000  -0.000  -0.000  -0.000   0.000  -0.001   0.000   0.001  -0.002   0.000   0.000   0.000  -0.000
 -0.000   0.001   0.000  -0.000  -0.000   0.000  -0.014   0.000   0.000   0.000  -0.000   0.000   0.001   0.000  -0.000
 -0.000   0.000  -0.006   0.000   0.007   0.000   0.000   0.007  -0.000  -0.007  -0.002   0.000   0.000  -0.001   0.000
 -0.000  -0.000   0.000   0.001  -0.000  -0.000  -0.000  -0.000  -0.001   0.000   0.000  -0.000  -0.000   0.000   0.001


------------------------ aborting loop because EDIFF is reached ----------------------------------------


    CHARGE:  cpu time    0.0781: real time    0.0785
    FORLOC:  cpu time    0.0011: real time    0.0011
    FORNL :  cpu time    0.4688: real time    0.4714
    STRESS:  cpu time    1.4205: real time    1.4280
    FORCOR:  cpu time    0.0165: real time    0.0166
    FORHAR:  cpu time    0.0028: real time    0.0028
    MIXING:  cpu time    0.0015: real time    0.0015
    OFIELD:  cpu time    0.0000: real time    0.0000

 ---------------------------------------------------------------------------------------------

         DFTD3 V3.0 Rev 1        
 IVDW         = 12
 DF pbe       
 parameters
 VDW_S6       =    1.0000
 VDW_S8       =    0.7875
 VDW_A1       =    0.4289
 VDW_A2       =    4.4407
 k1-k3        =   16.0000    1.3333   -4.0000
 VDW_RADIUS   =   50.2022 A
 VDW_CNRADIUS =   21.1671 A
 Edisp (eV)   -3.46904

 E6    (eV) :    -2.0783
 E8    (eV) :    -1.3907
 % E8        : 40.09
    FORVDW:  cpu time    0.0779: real time    0.0786

  FORCE on cell =-STRESS in cart. coord.  units (eV):
  Direction    XX          YY          ZZ          XY          YZ          ZX
  --------------------------------------------------------------------------------------
  Alpha Z   240.42019   240.42019   240.42019
  Ewald   -1015.11530 -1029.71270  -949.97577     0.00509    -0.03270    -0.61617
  Hartree   376.62908   374.36768   396.56033    -0.00364     0.03468     0.21352
  E(xc)    -309.60669  -309.91365  -310.10429     0.00006    -0.00681     0.01355
  Local    -345.20536  -330.79053  -424.15289    -0.00050    -0.02020     0.31108
  n-local  -181.37661  -187.11951  -181.12398    -0.00121    -0.02140    -0.04593
  augment    75.02234    77.12586    74.61278    -0.00040     0.01292     0.00627
  Kinetic  1163.36510  1169.05631  1157.84639    -0.00287     0.03974     0.13472
  Fock        0.00000     0.00000     0.00000     0.00000     0.00000     0.00000
  vdW        -3.70388    -3.66156    -3.62425     0.00000    -0.00002     0.00007
  -------------------------------------------------------------------------------------
  Total       0.42886    -0.22792     0.45850    -0.00346     0.00621     0.01710
  in kB       4.61007    -2.45005     4.92865    -0.03720     0.06672     0.18381
  external pressure =        2.36 kB  Pullay stress =        0.00 kB


 VOLUME and BASIS-vectors are now :
 -----------------------------------------------------------------------------
  energy-cutoff  :      600.00
  volume of cell :      149.05
      direct lattice vectors                 reciprocal lattice vectors
     3.969831076  0.000070113 -0.002480886     0.251899995 -0.000000262  0.000173230
     0.000005043  4.102715216 -0.001138969    -0.000004319  0.243741016 -0.000022367
    -0.006293226  0.000839663  9.151222625     0.000068289  0.000030336  0.109275060

  length of vectors
     3.969831852  4.102715374  9.151224828     0.251900055  0.243741017  0.109275086


 FORCES acting on ions
    electron-ion (+dipol)            ewald-force                    non-local-force                 convergence-correction
 -----------------------------------------------------------------------------------------------
   -.316E+00 -.274E-01 -.145E+02   0.312E+00 0.262E-01 0.141E+02   0.244E-02 -.297E-02 0.976E-01   0.927E-04 0.137E-04 -.394E-03
   0.580E+00 -.294E-01 0.882E+01   -.563E+00 0.293E-01 -.864E+01   -.123E-01 0.171E-02 -.939E-01   0.862E-04 -.355E-05 -.517E-03
   -.237E-01 0.457E-01 0.370E+01   0.320E-01 -.408E-01 -.361E+01   -.125E-02 -.151E-02 0.279E+00   0.417E-04 0.127E-04 0.361E-03
   -.163E+00 0.513E-01 0.405E+01   0.154E+00 -.491E-01 -.378E+01   0.576E-02 0.416E-02 -.279E+00   -.206E-04 0.321E-05 0.558E-03
   0.593E-01 -.430E-01 -.658E+02   -.577E-02 0.777E-01 0.744E+02   -.528E-01 -.398E-01 -.825E+01   0.516E-04 0.102E-03 -.829E-03
   0.251E+00 0.263E-01 -.393E+02   -.218E+00 -.275E-01 0.495E+02   -.352E-01 -.201E-02 -.102E+02   0.101E-03 0.818E-05 -.751E-03
   -.203E+00 0.371E-01 0.112E+02   0.261E+00 -.603E-01 -.186E+02   -.601E-01 0.221E-01 0.749E+01   0.427E-03 -.271E-04 -.337E-03
   -.329E+00 -.360E-01 0.618E+02   0.258E+00 0.492E-01 -.711E+02   0.697E-01 -.149E-01 0.928E+01   0.579E-03 -.315E-04 -.101E-02
   0.869E-01 0.115E-02 -.191E+02   -.130E+00 0.115E-01 0.246E+02   0.367E-01 -.119E-01 -.562E+01   -.257E-03 0.131E-04 -.422E-05
   -.128E+00 -.535E-01 -.394E+02   0.145E+00 0.640E-01 0.461E+02   -.165E-01 -.986E-02 -.688E+01   -.120E-03 0.114E-03 0.125E-02
   0.156E-03 0.586E-02 0.505E+02   -.262E-01 -.260E-01 -.564E+02   0.289E-01 0.240E-01 0.563E+01   -.133E-03 -.102E-03 0.112E-02
   0.164E+00 0.330E-01 0.362E+02   -.163E+00 -.368E-01 -.424E+02   -.773E-02 0.434E-02 0.639E+01   -.168E-03 0.226E-04 0.456E-03
   0.366E-01 0.175E-01 0.178E+01   -.343E-01 -.161E-01 -.174E+01   0.512E-03 -.374E-02 -.196E-01   -.540E-05 -.119E-05 0.258E-04
   0.251E-01 0.202E-02 0.264E+01   -.227E-01 -.126E-02 -.234E+01   -.253E-02 -.127E-03 -.341E+00   0.814E-06 -.112E-06 0.798E-04
 -----------------------------------------------------------------------------------------------
   0.411E-01 0.306E-01 0.249E+01   -.430E-14 0.795E-14 -.435E-13   -.444E-01 -.307E-01 -.251E+01   0.675E-03 0.124E-03 0.926E-05
 
 
 POSITION                                       TOTAL-FORCE (eV/Angst)
 -----------------------------------------------------------------------------------
      1.98568      2.05681      4.71401        -0.000542     -0.004184     -0.271594
      1.96899      0.00586      6.75575         0.004384      0.001580      0.087469
      3.95541      0.00476      9.14113         0.007281      0.003326      0.375261
      3.96816      2.05619      2.34017        -0.002522      0.006283     -0.014283
     -0.00070      2.05788      4.32987         0.000900     -0.004991      0.275326
      1.97636      2.05730      6.63744        -0.001130     -0.003183     -0.069726
      1.98341      0.00597      4.69687        -0.001467     -0.001147      0.081514
      3.95581      0.00613      7.19386        -0.000811     -0.001738     -0.055253
      1.97132      0.00523      8.95597        -0.005905      0.000793     -0.073506
      3.96688      0.00459      2.03176         0.000818      0.000749     -0.211805
      3.96272      2.05565      0.28817         0.002890      0.003736     -0.309968
      1.98341      2.05604      2.59716        -0.006933      0.000480      0.207656
      1.97103      2.05701      8.79350         0.002960     -0.002343      0.025751
      1.98281      0.00477      2.65173         0.000077      0.000639     -0.046844
 -----------------------------------------------------------------------------------
    total drift:                               -0.002556      0.000082     -0.020444


--------------------------------------------------------------------------------------------------------



  FREE ENERGIE OF THE ION-ELECTRON SYSTEM (eV)
  ---------------------------------------------------
  free  energy   TOTEN  =      -104.31365394 eV

  energy  without entropy=     -104.31328533  energy(sigma->0) =     -104.31346963
 


--------------------------------------------------------------------------------------------------------


    POTLOK:  cpu time    0.0237: real time    0.0238


--------------------------------------------------------------------------------------------------------


 stress matrix after NEB project (eV)
      0.42886     -0.00346      0.01710
     -0.00346     -0.22792      0.00621
      0.01710      0.00621      0.45850
  FORCES: max atom, RMS     0.375347    0.190008
  FORCE total and by dimension    0.710944    0.375261
  Stress total and by dimension    0.668417    0.458501


--------------------------------------------------------------------------------------------------------


    WAVPRE:  cpu time    0.0032: real time    0.0032
 FEWALD executed in parallel
    FEWALD:  cpu time    0.0003: real time    0.0003
    GENKIN:  cpu time    0.0049: real time    0.0049

 real space projection operators:
  total allocation   :       2674.05 KBytes
  max/ min on nodes  :        343.48        328.59

    ORTHCH:  cpu time    0.2259: real time    0.2272
     LOOP+:  cpu time   43.1989: real time   43.5723